Name,SMILES,Solubility,Group,MolLogP,MolMR,NumHAcceptors,NumHDonors,NumHeteroatoms,NumRotatableBonds,NumAromaticRings,NumSaturatedRings,NumAliphaticRings,RingCount,TPSA,LabuteASA,BalabanJ
"1,4-bis(propan-2-yl)benzene",CC(C)c1ccc(cc1)C(C)C,-6.6027992709,G1,3.9334000000000033,54.62000000000005,0.0,0.0,0.0,2.0,1.0,0.0,0.0,1.0,0.0,75.6210558058766,2.855624622160824
"4-[(1,5-dihydro-3-methyl-5-oxo-1-phenyl-4H-pyrazol-4-ylidene)methyl]-2,4-dihydro-5-methyl-2-phenyl-3H-pyrazol-3-one",CC1=NN(c2ccccc2)C(=O)C1/C=C/3C(=NN(c4ccccc4)C3=O)C,-7.8822713548,G1,3.3744000000000023,105.64700000000002,4.0,0.0,6.0,3.0,2.0,0.0,2.0,4.0,65.34,156.6453395685722,1.6262360742183612
3-hydroxy-4-[(E)-2-(2-methyl-4-nitrophenyl)diazen-1-yl]-N-(2-methylphenyl)naphthalene-2-carboxamide,Cc1ccccc1NC(=O)C2=Cc3ccccc3C(=N/Nc4ccc(cc4C)[N+]([O-])=O)/C2=O,-7.981147656799999,G1,4.632640000000003,127.22780000000004,6.0,2.0,8.0,5.0,3.0,0.0,1.0,4.0,113.7,189.34595494258636,1.672012097497269
"1,4-bis(butylamino)-9,10-dihydroanthracene-9,10-dione",CCCCNc1ccc(NCCCC)c2C(=O)c3ccccc3C(=O)c12,-7.9318570783,G1,4.886000000000004,106.54440000000008,4.0,2.0,4.0,8.0,2.0,0.0,1.0,3.0,58.2,154.55485588330149,2.073414075185858
"(2E,7R,11R)-3,7,11,15-tetramethylhexadec-2-en-1-ol; (2Z,7R,11R)-3,7,11,15-tetramethylhexadec-2-en-1-ol",CC(C)CCC[C@@H](C)CCC[C@@H](C)CCC/C(C)=C/CO,-4.8617411072,G1,6.364100000000008,95.56180000000008,1.0,1.0,1.0,13.0,0.0,0.0,0.0,0.0,20.23,133.77778192137686,3.516209888253743
docosan-1-amine; hexadecan-1-amine; icosan-1-amine; octadecan-1-amine,CCCCCCCCCCCCCCCCCCCN,-5.8571242399,G1,6.5967000000000064,93.21740000000008,1.0,1.0,1.0,17.0,0.0,0.0,0.0,0.0,26.02,128.64809978398125,2.8896766777949185
"O,O,O-Triphenyl phosphorothioate",S=[P](Oc1ccccc1)(Oc2ccccc2)Oc3ccccc3,-6.9546943469,G3,5.447900000000003,95.49500000000003,4.0,0.0,5.0,6.0,3.0,0.0,0.0,3.0,27.69,140.26615532335865,1.868683541996186
"2,6-di-tert-butyl-4-nonylphenol",[O-][N+](=O)c1ncn(CC(=O)Nc2cc(ccc2Cl)C(F)(F)F)n1,-5.968106766699999,G1,2.4972000000000003,71.76010000000001,6.0,1.0,12.0,4.0,2.0,0.0,0.0,2.0,102.95,130.5744375484702,2.1149195974201005
aluminium(3+) ion dichloride hydroxide,[Al+3].[Cl-].[Cl-].[Cl-],-6.568661207100001,G4,-9.3688,5.754,0.0,0.0,4.0,0.0,0.0,0.0,0.0,0.0,0.0,54.701270509538666,-0.0
"2,4,4-trimethylpentan-2-yl 2,2,3,5-tetramethylhexaneperoxoate 2,4,4-trimethylpentan-2-yl 2,2-diethylhexaneperoxoate 2,4,4-trimethylpentan-2-yl 2,2-dimethyloctaneperoxoate 2,4,4-trimethylpentan-2-yl 2,4-dimethyl-2-(propan-2-yl)pentaneperoxoate 2,4,4-trimethylpentan-2-yl 2-ethyl-2,5-dimethylhexaneperoxoate",CC(C)(C)CCCCC1(OO1)C(=O)OC(C)(C)CC(C)(C)C,-6.9712344191,G1,5.009000000000005,87.06700000000008,4.0,0.0,4.0,7.0,0.0,1.0,1.0,1.0,51.36,135.3688889233454,2.440184348638962
"1,2-dichloro-5,12-dihydroquino[2,3-b]acridine-7,14-dione",Clc1ccc2Nc3cc4C(=O)c5ccccc5Nc4cc3C(=O)c2c1Cl,-7.0666256459,G1,4.982800000000002,107.72740000000005,2.0,2.0,6.0,0.0,5.0,0.0,0.0,5.0,65.72,155.5269338621817,2.0305070183554905
"3,3'-[[4-[(2,6-dichloro-4-nitrophenyl)azo]phenyl]imino]bispropiononitrile",[O-][N+](=O)c1cc(Cl)c(N=Nc2ccc(cc2)N(CCC#N)CCC#N)c(Cl)c1,-7.115252612100001,G1,5.950760000000003,106.40740000000004,7.0,0.0,10.0,8.0,2.0,0.0,0.0,2.0,118.67999999999998,170.92942906583372,2.1858464355782146
cobalt(2+) oxalate,[Co++].[O-]C(=O)C([O-])=O,-4.6677879254,G4,-3.5163,10.014,4.0,0.0,5.0,0.0,0.0,0.0,0.0,0.0,80.25999999999999,49.33573832816826,0.0
"1,1,3,3-tetramethylbutyl 2-(ethylperoxy)hexanoate",CCCCC(CC)C(=O)OOC(C)(C)CC(C)(C)C,-5.9495319098,G1,4.892400000000005,78.63400000000007,3.0,0.0,3.0,8.0,0.0,0.0,0.0,0.0,35.53,118.53129061857447,4.254836312581354
Cholesterol,CC(C)CCC[C@@H](C)[C@H]1CC[C@H]2[C@@H]3CC=C4C[C@@H](O)CC[C@]4(C)[C@H]3CC[C@]12C,-7.1001953639,G3,7.388700000000009,119.05280000000008,1.0,1.0,1.0,5.0,0.0,3.0,4.0,4.0,20.23,174.30905210803618,1.4894525128431004
"1,1,1,2,2,3,3,4,4,5,5,6,6-tridecafluoro-8-iodooctane",FC(F)(F)C(F)(F)C(F)(F)C(F)(F)C(F)(F)C(F)(F)CCI,-7.1886381337000005,G1,5.550300000000001,54.29400000000001,0.0,0.0,14.0,6.0,0.0,0.0,0.0,0.0,0.0,126.70764418769048,6.112592581333274
2-methylundecane-2-thiol,CC(C)C(C)(C)C(C)(C)C(C)(C)S,-7.7118329776,G1,4.403200000000004,65.46500000000005,1.0,1.0,1.0,3.0,0.0,0.0,0.0,0.0,0.0,89.90868094959394,5.039847128628226
"2-[(1-amino-4-hydroxy-9,10-dioxo-9,10-dihydroanthracen-2-yl)oxy]ethyl phenyl carbonate",Nc1c(OCCOC(=O)Oc2ccccc2)cc(O)c3C(=O)c4ccccc4C(=O)c13,-8.0544153113,G1,3.3442000000000025,109.7392,8.0,2.0,8.0,5.0,3.0,0.0,1.0,4.0,125.15,176.32379738793952,1.458539184773559
"14h-Anthra[2,1,9-mna]thioxanthen-14-one",O=C1c2ccccc2c3ccc4Sc5ccccc5c6ccc1c3c46,-7.9828073074,G1,6.312100000000003,109.30500000000004,2.0,0.0,2.0,0.0,6.0,0.0,0.0,6.0,17.07,146.63112358869606,2.0449551359956426
"propane-2,2-diylbis(4,1-phenyleneoxyethane-2,1-diyl) diacetate",CC(=O)OCCOc1ccc(cc1)C(C)(C)c2ccc(OCCOC(C)=O)cc2,-8.0585030279,G1,3.8963000000000023,109.26800000000006,6.0,0.0,6.0,10.0,2.0,0.0,0.0,2.0,71.06,171.28008570203875,1.9297945091347877
1-[(E)-2-(2-chloro-4-nitrophenyl)diazen-1-yl]naphthalen-2-ol,[O-][N+](=O)c1ccc(N\N=C2/C(=O)C=Cc3ccccc23)c(Cl)c1,-7.9969982826,G1,3.660300000000002,88.74910000000001,5.0,1.0,7.0,3.0,2.0,0.0,1.0,3.0,84.6,135.78591633656234,1.9241773550034715
1-[(E)-2-(4-methyl-2-nitrophenyl)diazen-1-yl]naphthalen-2-ol,Cc1ccc(N\N=C2/C(=O)C=Cc3ccccc23)c(c1)[N+]([O-])=O,-7.9690613395,G1,3.3153200000000016,88.47610000000005,5.0,1.0,6.0,3.0,2.0,0.0,1.0,3.0,84.6,131.84759222407726,1.990595778524911
"butyl 2-[(E)-2-{2-hydroxy-3-[(2-oxo-2,3-dihydro-1H-1,3-benzodiazol-5-yl)carbamoyl]naphthalen-1-yl}diazen-1-yl]benzoate",CCCCOC(=O)c1ccccc1N\N=C2/C(=O)C(=Cc3ccccc23)C(=O)Nc4ccc5NC(=O)Nc5c4,-8.2138073561,G1,4.2341000000000015,148.76729999999984,7.0,4.0,10.0,8.0,4.0,0.0,1.0,5.0,145.50999999999996,222.33486792656672,1.4215066417691318
chromium (III) oxide,O=[Cr]O[Cr]=O,-7.6862678201,G5,-0.311,2.458,3.0,0.0,5.0,2.0,0.0,0.0,0.0,0.0,43.370000000000005,41.82867393360402,2.6531630746803305
"1,2,4-tris(2-ethylhexyl) benzene-1,2,4-tricarboxylate",CCCCC(CC)COC(=O)c1ccc(C(=O)OCC(CC)CCCC)c(c1)C(=O)OCC(CC)CCCC,-8.2520983426,G1,8.806200000000006,157.20749999999973,6.0,0.0,6.0,21.0,1.0,0.0,0.0,1.0,78.90000000000002,237.1100421968574,3.0977320648348665
4-[(E)-2-(4-carbamoylphenyl)diazen-1-yl]-3-hydroxy-N-(2-methoxyphenyl)naphthalene-2-carboxamide,COc1ccccc1NC(=O)C2=Cc3ccccc3C(=N/Nc4ccc(cc4)C(N)=O)/C2=O,-8.1667842337,G1,3.2151,126.16930000000002,6.0,3.0,8.0,6.0,3.0,0.0,1.0,4.0,122.88,189.30793724664983,1.64418476963934
oxotin,O=[Sn],-8.828369840499999,G1,-0.4996,6.440499999999999,1.0,0.0,2.0,0.0,0.0,0.0,0.0,0.0,17.07,26.132146256603107,2.0
"2,5-dimethylhexane-2,5-diyl bis[2-(ethylperoxy)hexanoate]",CCCCC(CC)C(=O)OOC(C)(C)CCC(C)(C)OOC(=O)C(CC)CCCC,-7.188496044500001,G1,6.706200000000008,118.3580000000001,6.0,0.0,6.0,17.0,0.0,0.0,0.0,0.0,71.06,183.7687354085432,4.471600150954922
2-tert-butyl-4-[(5-tert-butyl-4-hydroxy-2-methylphenyl)sulfanyl]-5-methylphenol,Cc1cc(O)c(cc1Sc2cc(c(O)cc2C)C(C)(C)C)C(C)(C)C,-7.112066324,G1,6.460840000000005,107.21060000000006,3.0,2.0,3.0,2.0,2.0,0.0,0.0,2.0,40.46,155.8494959992844,2.537011223267222
calcium 4-[(E)-2-(5-chloro-4-methyl-2-sulfonatophenyl)diazen-1-yl]-3-hydroxynaphthalene-2-carboxylate,[Ca++].Cc1cc(c(N\N=C\2C(=O)C(=Cc3ccccc23)C([O-])=O)cc1Cl)[S]([O-])(=O)=O,-6.2637704779,G1,0.7039199999999999,104.4989,8.0,1.0,11.0,4.0,2.0,0.0,1.0,3.0,138.79,200.56298470036035,2.9999967513369343e-06
calcium 3-hydroxy-4-[(E)-2-(1-sulfonatonaphthalen-2-yl)diazen-1-yl]naphthalene-2-carboxylate,[Ca++].[O-]C(=O)C1=Cc2ccccc2/C(=N/Nc3ccc4ccccc4c3[S]([O-])(=O)=O)C1=O,-6.2793954063,G1,0.8952999999999993,112.2579,8.0,1.0,10.0,4.0,3.0,0.0,1.0,4.0,138.79,206.5764408908172,2.7224967437289874e-06
N-(4-acetamidophenyl)-4-[(5-carbamoyl-2-chlorophenyl)diazenyl]-3-hydroxy-2-naphthamide,CC(=O)Nc1ccc(NC(=O)C2=Cc3ccccc3C(=N/Nc4cc(ccc4Cl)C(N)=O)/C2=O)cc1,-7.304443806799999,G1,3.8183000000000016,138.93099999999995,6.0,4.0,10.0,6.0,3.0,0.0,1.0,4.0,142.75,210.57398464207307,1.6211066495298816
ethyl 2-cyanoprop-2-enoate,CCOC(=O)C(=C)C#N,-6.717139790499999,G1,0.6292800000000001,31.385999999999992,3.0,0.0,3.0,2.0,0.0,0.0,0.0,0.0,50.09,53.54200557864768,3.7805908866432745
"sodium; benzene-1,4-diamine; methanolate; methyl 2,3,4,5-tetrachloro-6-cyanobenzoate",[Na+].C[O-].COC(=O)c1c(Cl)c(Cl)c(Cl)c(Cl)c1C#N.Nc2ccc(N)cc2,-6.3058678101,G3,0.7899799999999995,103.7273,6.0,2.0,11.0,1.0,2.0,0.0,0.0,2.0,125.19,198.72805477768532,0.0
"1-amino-4-(4-amino-9,10-dioxo-9,10-dihydroanthracen-1-yl)-9,10-dihydroanthracene-9,10-dione",Nc1ccc(c2ccc(N)c3C(=O)c4ccccc4C(=O)c23)c5C(=O)c6ccccc6C(=O)c15,-6.293710562799999,G3,4.068800000000002,127.31680000000004,6.0,2.0,6.0,1.0,4.0,0.0,2.0,6.0,120.32,193.37666168241756,1.6818491814256291
2-ethylhexyl (2-methylbutan-2-yl)oxy carbonate,CCCCC(CC)COC(=O)OOC(C)(C)CC,-6.088238680599999,G1,4.476200000000004,71.19400000000006,4.0,0.0,4.0,9.0,0.0,0.0,0.0,0.0,44.760000000000005,110.91495161928816,3.804847863720168
"3-ethoxy-1,1,1,2,3,4,4,5,5,6,6,6-dodecafluoro-2-(trifluoromethyl)hexane",CCOC(F)(C(F)(F)C(F)(F)C(F)(F)F)C(F)(C(F)(F)F)C(F)(F)F,-7.2887340171,G3,5.354500000000002,47.36299999999999,1.0,0.0,16.0,5.0,0.0,0.0,0.0,0.0,9.23,127.2553642164028,6.97859688554792
"octadecyl 3-(3,5-di-tert-butyl-4-hydroxyphenyl)propanoate",CCCCCCCCCCCCCCCCCCOC(=O)CCc1cc(c(O)c(c1)C(C)(C)C)C(C)(C)C,-8.2701498682,G4,10.724499999999992,164.33279999999965,3.0,1.0,3.0,20.0,1.0,0.0,0.0,1.0,46.53,236.08402551874536,2.131331311862653
"4,11-diamino-2-[3-(2-methoxyethoxy)propyl]-1H-naphtho[2,3-f]isoindole-1,3,5,10(2H)-tetrone",COCCOCCCN1C(=O)c2c(N)c3C(=O)c4ccccc4C(=O)c3c(N)c2C1=O,-8.2650486602,G1,0.4816,120.53880000000004,9.0,2.0,9.0,7.0,4.0,0.0,0.0,4.0,143.71,174.63814156190614,1.947559944885657
"1,4-diamino-2,3-diphenoxy-9,10-dihydroanthracene-9,10-dione",Nc1c(Oc2ccccc2)c(Oc3ccccc3)c(N)c4C(=O)c5ccccc5C(=O)c14,-8.2716565948,G5,5.211000000000004,121.60580000000004,6.0,2.0,6.0,4.0,4.0,0.0,1.0,5.0,104.64,183.55665486607975,1.7617061386059107
hydrogen selenide,[Se],-6.5751878449,G1,-0.3808,5.754,0.0,0.0,1.0,0.0,0.0,0.0,0.0,0.0,0.0,17.964098032124472,0.0
8-methylnonyl methacrylate,CC(C)CCCCCCCOC(=O)C(C)=C,-6.0559466089,G3,4.102300000000003,68.31300000000005,2.0,0.0,2.0,9.0,0.0,0.0,0.0,0.0,26.3,100.06896281235188,3.157736087145381
2-[(E)-2-(4-chloro-2-nitrophenyl)diazen-1-yl]-N-(2-methoxyphenyl)-3-oxobutanamide,COc1ccccc1NC(=O)C(N=Nc2ccc(Cl)cc2[N+]([O-])=O)C(C)=O,-7.3063783536,G1,3.9368000000000025,98.71510000000004,7.0,1.0,10.0,7.0,2.0,0.0,0.0,2.0,123.26,158.70267930461705,2.278791359548572
telluroxocadmium,[Cd]=[Te],-7.1014793549,G4,-0.3833,5.754,0.0,0.0,2.0,0.0,0.0,0.0,0.0,0.0,0.0,37.28610594198671,2.0
"dibenzylbenzene, ar-methyl derivative",Cc1cccc(Cc2ccccc2)c1Cc3ccccc3,-7.179920248999999,G1,5.176620000000004,89.67500000000004,0.0,0.0,0.0,4.0,3.0,0.0,0.0,3.0,0.0,126.64041787481489,1.9215259782478824
Cobaltous carbonate,[Co++].[O-]C([O-])=O,-4.8375365922,G4,-2.4495000000000005,5.396,3.0,0.0,4.0,0.0,0.0,0.0,0.0,0.0,63.19,38.809274113727895,0.0
"2-[(E)-2-{2-oxo-1-[(2-oxo-2,3-dihydro-1H-1,3-benzodiazol-5-yl)carbamoyl]propyl}diazen-1-yl]benzoic acid",CC(=O)C(N=Nc1ccccc1C(O)=O)C(=O)Nc2ccc3NC(=O)Nc3c2,-7.330901470700001,G1,2.2344,99.93540000000004,6.0,4.0,10.0,6.0,3.0,0.0,0.0,3.0,156.83999999999995,156.86064301170828,1.8278573002965857
"4-[(E)-2-(2,5-dichlorophenyl)diazen-1-yl]-3-hydroxy-N-(2-oxo-2,3-dihydro-1H-1,3-benzodiazol-5-yl)naphthalene-2-carboxamide",Clc1ccc(Cl)c(N\N=C2/C(=O)C(=Cc3ccccc23)C(=O)Nc4ccc5NC(=O)Nc5c4)c1,-7.461800321799999,G1,4.584000000000003,133.59679999999997,5.0,4.0,10.0,4.0,4.0,0.0,1.0,5.0,119.20999999999998,201.8416224787964,1.4773922628450773
calcium bis(4-[(E)-2-{1-[(2-chlorophenyl)carbamoyl]-2-oxopropyl}diazen-1-yl]-3-nitrobenzene-1-sulfonate),[Ca++].CC(=O)C(N=Nc1ccc(cc1[N+]([O-])=O)[S]([O-])(=O)=O)C(=O)Nc2ccccc2Cl,-5.4514607628,G1,2.4515,105.8803,9.0,1.0,14.0,7.0,2.0,0.0,0.0,2.0,171.23,204.9685959659784,4.499994076508047e-06
iron,[Fe],-5.5190975907,G4,-0.0025,0.0,0.0,0.0,1.0,0.0,0.0,0.0,0.0,0.0,0.0,17.964098032124472,0.0
cyclododecane,C1CCCCCCCCCCC1,-7.0220260604,G2,4.681200000000004,55.404000000000046,0.0,0.0,0.0,0.0,0.0,1.0,1.0,1.0,0.0,77.74778313266303,2.0000000000000004
hexyl 2-[4-(diethylamino)-2-hydroxybenzoyl]benzoate,CCCCCCOC(=O)c1ccccc1C(=O)c2ccc(cc2O)N(CC)CC,-7.3952335385,G3,5.2065000000000055,115.96680000000006,5.0,1.0,5.0,11.0,2.0,0.0,0.0,2.0,66.84,172.85845955031414,2.2025575725499165
borane,[B],-4.8435743389,G1,-0.3808,5.754,0.0,0.0,1.0,0.0,0.0,0.0,0.0,0.0,0.0,9.690588115189607,0.0
Cobaltous 2-ethylhexanoate,[Co++].CCCCC(CC)C([O-])=O.CCCCC(CC)C([O-])=O,-5.347977516,G4,1.9029,76.62600000000006,4.0,0.0,5.0,10.0,0.0,0.0,0.0,0.0,80.25999999999999,139.45075908325003,-2.945454481041324e-07
"2,3-dibutyl 1,4,5,6,7,7-hexachlorobicyclo[2.2.1]hept-5-ene-2,3-dicarboxylate",CCCCOC(=O)C1C(C(=O)OCCCC)C2(Cl)C(=C(Cl)C1(Cl)C2(Cl)Cl)Cl,-7.5095589026,G1,5.750900000000004,109.05100000000002,4.0,0.0,10.0,8.0,0.0,1.0,2.0,2.0,52.60000000000001,188.24679153932397,2.4706119453154725
Solvent orange 60,O=C1N2c3cccc4cccc(N=C2c5ccccc15)c34,-7.255740326000001,G1,3.8584000000000014,82.40350000000002,3.0,0.0,3.0,0.0,4.0,0.0,1.0,5.0,34.89,120.01123933849868,2.0659556403449284
"2,9-dichloro-5,7,12,14-tetrahydro-5,12-diazapentacene-7,14-dione",Clc1ccc2Nc3cc4C(=O)c5cc(Cl)ccc5Nc4cc3C(=O)c2c1,-7.4198053963,G1,4.982800000000002,107.72740000000002,2.0,2.0,6.0,0.0,5.0,0.0,0.0,5.0,65.72,155.52693386218166,1.998695921990577
"3-oxo-N-(2-oxo-2,3-dihydro-1H-1,3-benzodiazol-5-yl)-2-[(E)-2-[2-(trifluoromethyl)phenyl]diazen-1-yl]butanamide",CC(=O)C(N=Nc1ccccc1C(F)(F)F)C(=O)Nc2ccc3NC(=O)Nc3c2,-7.455526832999999,G1,3.5550000000000006,97.97810000000004,5.0,3.0,11.0,5.0,3.0,0.0,0.0,3.0,119.54,160.40149336824717,1.837547264852792
"2-[(E)-2-(4-chloro-2-nitrophenyl)diazen-1-yl]-3-oxo-N-(2-oxo-2,3-dihydro-1H-1,3-benzodiazol-5-yl)butanamide",CC(=O)C(N=Nc1ccc(Cl)cc1[N+]([O-])=O)C(=O)Nc2ccc3NC(=O)Nc3c2,-7.473779876699999,G1,3.0977999999999994,104.64050000000002,7.0,3.0,12.0,6.0,3.0,0.0,0.0,3.0,162.67999999999998,166.4961869944533,1.8412949828031653
10-[(2-methylprop-2-enoyl)oxy]decyl 2-methylprop-2-enoate,CC(=C)C(=O)OCCCCCCCCCCOC(=O)C(C)=C,-6.3502060506,G1,4.345800000000004,88.48200000000006,4.0,0.0,4.0,13.0,0.0,0.0,0.0,0.0,52.6,134.1141955673047,3.2090751560800093
"4,11-dichloro-5,7,12,14-tetrahydro-5,12-diazapentacene-7,14-dione",Clc1cccc2C(=O)c3cc4Nc5c(Cl)cccc5C(=O)c4cc3Nc12,-6.4573217576,G1,4.982800000000002,107.72740000000005,2.0,2.0,6.0,0.0,5.0,0.0,0.0,5.0,65.72,155.52693386218164,2.042772422360187
2-[(E)-2-(4-methyl-2-nitrophenyl)diazen-1-yl]-3-oxo-N-phenylbutanamide,CC(=O)C(N=Nc1ccc(C)cc1[N+]([O-])=O)C(=O)Nc2ccccc2,-7.4179683662,G1,3.5832200000000016,91.8901,6.0,1.0,8.0,6.0,2.0,0.0,0.0,2.0,114.03,143.2858678482285,2.2452940318549746
decanoyl decaneperoxoate,CCCCCCCCCC(=O)OOC(=O)CCCCCCCCC,-6.4497523604,G1,6.269200000000007,97.40400000000008,4.0,0.0,4.0,16.0,0.0,0.0,0.0,0.0,52.6,148.1525811762048,3.3411574738989427
4-[(4-chloro-2-nitrophenyl)diazenyl]-3-hydroxy-N-(2-methylphenyl)-2-naphthamide,Cc1ccccc1NC(=O)C2=Cc3ccccc3C(=N/Nc4ccc(Cl)cc4[N+]([O-])=O)/C2=O,-7.5632144901,G1,4.977620000000003,127.5008,6.0,2.0,9.0,5.0,3.0,0.0,1.0,4.0,113.7,193.28427905507135,1.7070881818761272
"[1,3-dihydro-5,6-bis[[(2-hydroxy-1-naphthyl)methylene]amino]-2H-benzimidazol-2-onato(2-)-N5,N6,O5,O6]nickel",[Ni++].[O-]c1ccc2ccccc2c1C=Nc3cc4NC(=O)Nc4cc3N=Cc5c([O-])ccc6ccccc56,-7.6266942296,G1,4.808500000000002,140.21539999999987,5.0,2.0,8.0,4.0,6.0,0.0,0.0,6.0,119.49,220.33666495345275,2.801662043013398e-06
oxygen(-2) anion; platinum(+4) cation,[O--].[O--].[Pt+4],-7.2627495503,G4,-0.2401,1.373,0.0,0.0,3.0,0.0,0.0,0.0,0.0,0.0,57.0,32.71807270851375,-0.0
neodymium,[Nd],-7.0799044677,G1,0.0,0.0,0.0,0.0,1.0,0.0,0.0,0.0,0.0,0.0,0.0,40.39798497673813,0.0
oxocobalt,O=[Co],-5.798391069,G4,-0.1213,0.6865,1.0,0.0,2.0,0.0,0.0,0.0,0.0,0.0,17.07,20.447359628319397,2.0
4-[(E)-2-(4-carbamoylphenyl)diazen-1-yl]-N-(2-ethoxyphenyl)-3-hydroxynaphthalene-2-carboxamide,CCOc1ccccc1NC(=O)C2=Cc3ccccc3C(=N/Nc4ccc(cc4)C(N)=O)\C2=O,-7.581973548400001,G1,3.605200000000001,130.78630000000007,6.0,3.0,8.0,7.0,3.0,0.0,1.0,4.0,122.88,195.67287936104648,1.6334356970113693
3-hydroxy-4-[(2-methyl-5-nitrophenyl)diazenyl]-N-phenyl-2-naphthamide,Cc1ccc(cc1N\N=C2/C(=O)C(=Cc3ccccc23)C(=O)Nc4ccccc4)[N+]([O-])=O,-7.5579677799,G1,4.324220000000003,122.49080000000004,6.0,2.0,8.0,5.0,3.0,0.0,1.0,4.0,113.70000000000002,182.9810128281897,1.6911131102648451
"2-[(E)-2-(4-nitrophenyl)diazen-1-yl]-3-oxo-N-(2-oxo-2,3-dihydro-1H-1,3-benzodiazol-5-yl)butanamide",CC(=O)C(N=Nc1ccc(cc1)[N+]([O-])=O)C(=O)Nc2ccc3NC(=O)Nc3c2,-7.5255403409,G1,2.4444,99.63050000000004,7.0,3.0,11.0,6.0,3.0,0.0,0.0,3.0,162.67999999999998,156.19292076757165,1.7594066928632683
12-[(2-methylprop-2-enoyl)oxy]dodecyl 2-methylprop-2-enoate,CC(=C)C(=O)OCCCCCCCCCCCCOC(=O)C(C)=C,-7.484220297999999,G1,5.126000000000005,97.71600000000008,4.0,0.0,4.0,15.0,0.0,0.0,0.0,0.0,52.6,146.84407979609796,3.1786627519829893
"N-(4-carbamoylphenyl)-4-[(E)-2-{2-oxo-1-[(2-oxo-2,3-dihydro-1H-1,3-benzodiazol-5-yl)carbamoyl]propyl}diazen-1-yl]benzamide",CC(=O)C(N=Nc1ccc(cc1)C(=O)Nc2ccc(cc2)C(N)=O)C(=O)Nc3ccc4NC(=O)Nc4c3,-6.672808805599999,G1,2.8873999999999995,135.88920000000005,7.0,5.0,12.0,8.0,4.0,0.0,0.0,4.0,191.73,208.53972056063736,1.4040493831297949
1-({[(piperidine-1-carbothioyldisulfanyl)disulfanyl]disulfanyl}methanethioyl)piperidine,S=C(SSSSSSC(=S)N1CCCCC1)N2CCCCC2,-7.6317322062,G1,6.502200000000005,121.59000000000005,8.0,0.0,10.0,5.0,0.0,2.0,2.0,2.0,6.48,166.71765039789005,1.4635793989904953
"5,7,12,14-tetrahydro-5,12-diazapentacene-7,14-dione",O=C1c2ccccc2Nc3cc4C(=O)c5ccccc5Nc4cc13,-7.481773695499999,G1,3.676000000000001,97.70740000000002,2.0,2.0,4.0,0.0,5.0,0.0,0.0,5.0,65.72,134.92040140841831,2.0481360451998234
"1,2-Benzenedicarboxylic acid, benzyl C7-9-branched and linear alkyl esters",CCCCCCCCOC(=O)c1ccccc1C(=O)OCc2ccccc2,-8.2876520693,G3,5.5609000000000055,105.66200000000003,4.0,0.0,4.0,11.0,2.0,0.0,0.0,2.0,52.60000000000001,161.05299524302498,1.841431163941236
2-[(E)-2-(4-methoxy-2-nitrophenyl)diazen-1-yl]-N-(2-methoxyphenyl)-3-oxobutanamide,COc1ccc(N=NC(C(C)=O)C(=O)Nc2ccccc2OC)c(c1)[N+]([O-])=O,-8.3082430527,G1,3.2920000000000007,100.25710000000004,8.0,1.0,10.0,8.0,2.0,0.0,0.0,2.0,132.49,159.8779004216389,2.28737563375386
"N-[(1,1,3,3-tetramethylbutyl)phenyl]naphthalen-1-amine",CC(C)(C)CC(C)(C)N(c1ccccc1)c2cccc3ccccc23,-8.2900385416,G1,7.192700000000007,110.68000000000004,1.0,0.0,1.0,4.0,3.0,0.0,0.0,3.0,3.24,151.84953244267243,2.2104400553972057
"4-[(E)-2-(2,5-dichlorophenyl)diazen-1-yl]-3-hydroxy-N-(2-methoxyphenyl)naphthalene-2-carboxamide",COc1ccccc1NC(=O)C2=Cc3ccccc3C(=N/Nc4cc(Cl)ccc4Cl)\C2=O,-8.4645677849,G1,5.423000000000003,127.6714,5.0,2.0,8.0,5.0,3.0,0.0,1.0,4.0,79.78999999999999,194.0481147889601,1.6929904459693188
"(2R)-2,5,7,8-tetramethyl-2-[(4R,8R)-4,8,12-trimethyltridecyl]-3,4-dihydro-2H-1-benzopyran-6-ol",CC(C)CCC[C@@H](C)CCC[C@@H](C)CCC[C@]1(C)CCc2c(C)c(O)c(C)c(C)c2O1,-8.520248661,G1,8.840260000000002,134.3908,2.0,1.0,2.0,12.0,1.0,0.0,1.0,2.0,29.46,192.72701957879272,1.7382656832927932
"(2R)-2,5,7,8-tetramethyl-2-[(4R,8R)-4,8,12-trimethyltridecyl]-3,4-dihydro-2H-1-benzopyran-6-ol; (2R)-2,5,8-trimethyl-2-[(4R,8R)-4,8,12-trimethyltridecyl]-3,4-dihydro-2H-1-benzopyran-6-ol; (2R)-2,7,8-trimethyl-2-[(4R,8R)-4,8,12-trimethyltridecyl]-3,4-dihydro-2H-1-benzopyran-6-ol; (2R)-2,8-dimethyl-2-[(4R,8R)-4,8,12-trimethyltridecyl]-3,4-dihydro-2H-1-benzopyran-6-ol",CC(C)CCCC(C)CCCC(C)CCCC1(C)CCc2cc(O)c(C)c(C)c2O1,-8.5058697258,G1,8.531840000000006,129.65380000000007,2.0,1.0,2.0,12.0,1.0,0.0,1.0,2.0,29.46,186.3620774643961,1.6909527051875517
oxopalladium,[O--].[Pd++],-8.0625429623,G1,-0.1213,0.6865,0.0,0.0,2.0,0.0,0.0,0.0,0.0,0.0,28.5,26.6284974733896,0.0