Name,SMILES,Solubility,Group,MolLogP,MolMR,NumHAcceptors,NumHDonors,NumHeteroatoms,NumRotatableBonds,NumAromaticRings,NumSaturatedRings,NumAliphaticRings,RingCount,TPSA,LabuteASA,BalabanJ
dimethyl carbonate,COC(=O)OC,0.1852603514,G3,0.3992,19.413999999999994,3.0,0.0,3.0,0.0,0.0,0.0,0.0,0.0,35.53,35.8577478156803,2.9881608821342693
cyclohexyl 2-methylprop-2-enoate,CC(=C)C(=O)OC1CCCCC1,-3.0885648226,G3,2.438400000000001,47.779000000000025,2.0,0.0,2.0,2.0,0.0,1.0,1.0,1.0,26.3,73.60336320123619,2.291009334754761
2-phenylethyl propanoate,CCC(=O)OCCc1ccccc1,-3.1174443354,G1,2.1823,51.39600000000004,2.0,0.0,2.0,4.0,1.0,0.0,0.0,1.0,26.3,78.53118102103066,2.2413765431693933
benzyl butanoate,CCCC(=O)OCc1ccccc1,-3.1174443354,G3,2.5299000000000005,51.14600000000004,2.0,0.0,2.0,4.0,1.0,0.0,0.0,1.0,26.3,78.53118102103066,2.310042822879905
2-amino-5-acetamidobenzene-1-sulfonic acid,CC(=O)Nc1ccc(N)c(c1)[S](O)(=O)=O,-1.2318564393,G1,0.4739,54.97270000000001,4.0,3.0,7.0,2.0,1.0,0.0,0.0,1.0,109.49,86.84119833899531,3.231502193499952
(aminooxy)sulfonic acid,NO[S](O)(=O)=O,0.0752827195,G1,-1.3204999999999996,16.821,4.0,2.0,6.0,1.0,0.0,0.0,0.0,0.0,89.62,34.61942322552916,3.850621638983669
(3Z)-hex-3-en-1-yl methyl carbonate,CC/C=C/CCOC(=O)OC,-3.0698306477,G1,2.1257,42.405000000000015,3.0,0.0,3.0,4.0,0.0,0.0,0.0,0.0,35.53,66.99285535547907,3.1387848595791468
bicyclo[2.2.1]hept-2-ene,C1CC2CC1C=C2,-2.8477212054,G1,1.9725,29.970999999999982,0.0,0.0,0.0,0.0,0.0,1.0,2.0,2.0,0.0,44.22763837496648,2.2712003045102303
"2,4-dimethyl-1-nitrobenzene",Cc1ccc(c(C)c1)[N+]([O-])=O,-3.0555996074,G1,2.21164,42.57040000000002,2.0,0.0,3.0,1.0,1.0,0.0,0.0,1.0,43.14,64.81426307078998,3.1960696621259204
"2-(1,3-benzothiazol-2-ylsulfanyl)acetic acid",OC(=O)CSc1sc2ccccc2n1,-3.2288979848,G1,2.4730000000000008,57.97980000000002,4.0,1.0,5.0,3.0,2.0,0.0,0.0,2.0,50.19,88.78182900898841,2.224690446790446
3-(4-tert-butylphenyl)propanal,CC(C)(C)c1ccc(CCC=O)cc1,-3.1588329057,G1,3.1156000000000024,59.52700000000005,1.0,0.0,1.0,3.0,1.0,0.0,0.0,1.0,17.07,86.147520020317,2.7334971039769465
"3,5-dinitrobenzoic acid",OC(=O)c1cc(cc(c1)[N+]([O-])=O)[N+]([O-])=O,-2.2076497234,G3,1.2011999999999998,46.7101,5.0,1.0,8.0,3.0,1.0,0.0,0.0,1.0,123.58,82.05805253113294,3.387380075453351
"N-(2,2,6,6-tetramethylpiperidin-4-yl)-N-{6-[N-(2,2,6,6-tetramethylpiperidin-4-yl)formamido]hexyl}formamide",CC1(C)CC(CC(C)(C)N1)N(CCCCCCN(C=O)C2CC(C)(C)NC(C)(C)C2)C=O,-1.5399557687999998,G1,4.0820000000000025,132.63940000000002,4.0,2.0,6.0,11.0,0.0,2.0,2.0,2.0,64.68,196.79357748839672,1.7433074821037915
aminothiourea,NNC(N)=S,-0.8457609068,G3,-1.3067000000000002,24.10850000000001,2.0,3.0,4.0,0.0,0.0,0.0,0.0,0.0,64.07,35.29781087290288,2.847378923087672
"2-(heptan-3-yl)-1,3-dioxolane",CCCCC(CC)C1OCCO1,-3.1195968677,G1,2.5757000000000003,48.99800000000003,2.0,0.0,2.0,5.0,0.0,1.0,1.0,1.0,18.46,75.24498936288354,2.2234055010375444
2-methyl-2-[(2-methylbutan-2-yl)peroxy]butane,CCC(C)(C)OOC(C)(C)CC,-4.1004353388,G1,3.3118000000000016,50.91000000000003,2.0,0.0,2.0,5.0,0.0,0.0,0.0,0.0,18.46,76.18011583215107,3.820913091355932
"1-(2,6,6-trimethylcyclohex-1-en-1-yl)pent-1-en-3-one",CCC(=O)/C=C/C1=C(C)CCCC1(C)C,-4.187455475,G3,4.048300000000003,64.77000000000004,1.0,0.0,1.0,3.0,0.0,0.0,1.0,1.0,17.07,93.25998339713148,2.8977630167536708
"2,2,4-trimethyl-1-[(2-methylpropanoyl)oxy]pentan-3-yl 2-methylpropanoate",CC(C)C(OC(=O)C(C)C)C(C)(C)COC(=O)C(C)C,-4.333139569,G1,3.4356000000000027,79.13400000000006,4.0,0.0,4.0,7.0,0.0,0.0,0.0,0.0,52.6,122.76351740287993,4.79440813789917
4-(propan-2-yl)cyclohexyl propanoate,CCC(=O)OC1CCC(CC1)C(C)C,-4.1734842136,G1,3.1544000000000016,56.96700000000005,2.0,0.0,2.0,3.0,0.0,1.0,1.0,1.0,26.3,87.02285046221364,2.2517550201186687
trimethoxy(octyl)silane,CCCCCCCC[Si](OC)(OC)OC,-4.2461281993,G1,3.2250000000000014,64.96400000000006,3.0,0.0,4.0,10.0,0.0,0.0,0.0,0.0,27.69,95.48028069241816,3.5369683994703074
"3,6,9-triethyl-3,6,9-trimethyl-1,2,4,5,7,8-hexaoxonane",CCC1(C)OOC(C)(CC)OOC(C)(CC)OO1,-4.3048554438,G1,3.223200000000002,62.598000000000056,6.0,0.0,6.0,3.0,0.0,1.0,1.0,1.0,55.38000000000001,108.21694045691922,2.8830659131943897
bis-O-(benzylidene)-D-glucitol,O[C@]12COC(O[C@@H]1[C@H]3OC(OC[C@H]3O2)c4ccccc4)c5ccccc5,-4.4379626594,G1,2.3022,89.83880000000005,6.0,1.0,6.0,2.0,2.0,3.0,3.0,5.0,66.38000000000001,150.75250067987656,1.3812327795260029
"ethyl 5-oxo-1-phenyl-4,5-dihydro-1H-pyrazole-3-carboxylate",CCOC(=O)C1=NN(C(=O)C1)c2ccccc2,-3.2553454425,G1,1.3424,62.61300000000003,4.0,0.0,5.0,3.0,1.0,0.0,1.0,2.0,58.97,98.67710625824029,2.203521434699209
oct-7-enal,C=CCCCCCC=O,-1.9972521926,G1,2.3218000000000005,39.346,1.0,0.0,1.0,6.0,0.0,0.0,0.0,0.0,17.07,56.76576489646532,2.7360228770128336
diphenylacetic acid,OC(=O)C(c1ccccc1)c2ccccc2,-3.2230398856,G1,2.903100000000001,62.36280000000004,1.0,1.0,2.0,3.0,2.0,0.0,0.0,2.0,37.3,94.174137406594,2.4372651795739144
isopropyl chlorocarbonate,CC(C)OC(Cl)=O,-0.9882911293,G1,1.7702,27.469999999999988,2.0,0.0,3.0,1.0,0.0,0.0,0.0,0.0,26.3,47.41241092745169,3.126006652390634
sodium 2-hydroxybenzoate,[Na+].Oc1ccccc1C([O-])=O,-0.1074921693999999,G5,-3.240299999999998,32.43729999999999,3.0,1.0,4.0,1.0,1.0,0.0,0.0,1.0,60.36,85.95973446104132,9.999998370000272e-07
1-phenylvinyl acetate,CC(=O)OC(=C)c1ccccc1,-2.1135953878,G1,2.2204,47.242000000000026,2.0,0.0,2.0,2.0,1.0,0.0,0.0,1.0,26.3,71.47663587444978,2.725078186491341
"ethyl 2-(2,4-dimethyl-1,3-dioxolan-2-yl)acetate",CCOC(=O)CC1(C)OCC(C)O1,-2.1798872233,G1,1.0911,46.15400000000003,4.0,0.0,4.0,3.0,0.0,1.0,1.0,1.0,44.760000000000005,78.15511457803758,2.3870375489290803
"1,3-dichlorobenzene",Clc1cccc(Cl)c1,-3.0721598007,G5,2.993400000000001,36.46200000000001,0.0,0.0,2.0,0.0,1.0,0.0,0.0,1.0,0.0,58.03793557326031,3.077660437970554
2-(2-methylphenyl)ethanol,Cc1ccccc1CCO,-1.042878011,G1,1.52982,41.968800000000016,1.0,1.0,1.0,2.0,1.0,0.0,0.0,1.0,20.23,61.32046321488279,2.811180917188401
"4-chlorobenzene-1,3-diol",Oc1ccc(Cl)c(O)c1,-1.070567643,G4,1.7512,34.781600000000005,2.0,2.0,3.0,0.0,1.0,0.0,0.0,1.0,40.46,57.32313685077066,3.171678030440916
"6,6-dimethyl-2-methylidenebicyclo[3.1.1]heptan-3-ol",CC1(C)C2CC(O)C(=C)C1C2,-2.09612479,G1,1.9695,45.14180000000002,1.0,1.0,1.0,0.0,0.0,3.0,3.0,3.0,20.23,68.11669847035232,2.2332046723663592
4-(propan-2-yl)cyclohexan-1-ol,CC(C)C1CCC(O)CC1,-2.0680942751,G1,2.1935,42.80280000000001,1.0,1.0,1.0,1.0,0.0,1.0,1.0,1.0,20.23,63.44719054166919,2.259902596224093
"1,2-dichloro-4-nitrobenzene",[O-][N+](=O)c1ccc(Cl)c(Cl)c1,-3.2005181203,G1,2.901600000000001,43.11640000000001,2.0,0.0,5.0,1.0,1.0,0.0,0.0,1.0,43.14,72.6909112957601,3.1515496683060507
"disodium 2,5-dichloro-4-{3-methyl-5-oxo-4-[(E)-2-(4-sulfonatophenyl)diazen-1-yl]-4,5-dihydro-1H-pyrazol-1-yl}benzene-1-sulfonate",[Na+].[Na+].CC1=NN(C(=O)C1N=Nc2ccc(cc2)[S]([O-])(=O)=O)c3cc(Cl)c(cc3Cl)[S]([O-])(=O)=O,-0.6605427703,G1,-3.315399999999995,107.72940000000004,10.0,0.0,17.0,5.0,2.0,0.0,1.0,3.0,171.79,242.86663046971807,2.7224979542078405e-06
ammonium iron(III) citrate,N.[Fe+3].OC(CC([O-])=O)(CC([O-])=O)C([O-])=O,0.6609213970000001,G1,-5.093099999999998,34.22690000000001,8.0,2.0,9.0,5.0,0.0,0.0,0.0,0.0,175.62,94.95683354489532,-7.199998836750194e-07
disodium 2-amino-5-[(4-sulphonatophenyl)azo]benzenesulphonate,[Na+].[Na+].Nc1ccc(cc1[S]([O-])(=O)=O)N=Nc2ccc(cc2)[S]([O-])(=O)=O,-0.5243236254,G1,-4.499599999999996,77.39880000000002,9.0,1.0,13.0,4.0,2.0,0.0,0.0,2.0,165.14,188.359237132568,2.87999876945054e-06
"Glycerol, propoxylated, esters with acrylic acid",C=CC(=O)OCCCOCC(COCCCOC(=O)C=C)OCCCOC(=O)C=C,-2.5527472821,G1,1.7627,108.69700000000007,9.0,0.0,9.0,20.0,0.0,0.0,0.0,0.0,106.59,177.13512189638158,4.045434528323379
N-{4-[(2-hydroxyethyl)sulfonyl]phenyl}acetamide,CC(=O)Nc1ccc(cc1)[S](=O)(=O)CCO,-2.3069323017,G1,0.4109999999999998,59.88430000000003,4.0,2.0,6.0,4.0,1.0,0.0,0.0,1.0,83.47,94.0221879947178,2.9054696664014155
acetylene,C#C,-1.3364263766,G2,0.2493999999999999,9.89,0.0,0.0,0.0,0.0,0.0,0.0,0.0,0.0,0.0,14.103418534085428,3.0
propiophenone,CCC(=O)c1ccccc1,-2.0485000681,G3,2.2793,41.063500000000026,1.0,0.0,1.0,2.0,1.0,0.0,0.0,1.0,17.07,60.68775156273055,2.8526279288191434
4-tert-butylbenzaldehyde,CC(C)(C)c1ccc(C=O)cc1,-3.1309552762,G5,2.796600000000001,50.529500000000034,1.0,0.0,1.0,1.0,1.0,0.0,0.0,1.0,17.07,73.41763579152378,2.99883701071891
6-aminonaphthalene-2-sulfonic acid,Nc1ccc2cc(ccc2c1)[S](O)(=O)=O,-3.2696160575,G1,1.6687,58.17500000000001,3.0,2.0,5.0,1.0,2.0,0.0,0.0,2.0,80.39,87.0815943582855,2.7288816645246325
"1-(2,6,6-trimethylcyclohex-2-en-1-yl)pentan-3-one; prop-2-yn-1-ol",CCC(=O)CCC1C(=CCCC1(C)C)C.OCC#C,-4.3219056885,G1,3.740100000000002,80.71280000000004,2.0,1.0,2.0,4.0,0.0,0.0,1.0,1.0,37.3,117.84370307009009,7.109999246749671e-07
2-ethylhexyl nitrate,CCCCC(CC)CO[N+]([O-])=O,-4.1466934911,G1,2.4111,46.25240000000003,3.0,0.0,4.0,7.0,0.0,0.0,0.0,0.0,52.37,73.01440528009046,3.453466338342537
"3-ethoxy-1,1,5-trimethylcyclohexane",CCOC1CC(C)CC(C)(C)C1,-4.1342944341,G1,3.237700000000002,52.21000000000004,1.0,0.0,1.0,2.0,0.0,1.0,1.0,1.0,9.23,76.49638624777329,2.4565297356570683
isooctyl acrylate,CC(C)CCCCCOC(=O)C=C,-4.1706554665,G1,2.9320000000000013,54.46200000000004,2.0,0.0,2.0,7.0,0.0,0.0,0.0,0.0,26.3,80.97413646916202,3.079859080243926
"2-(cyclohexylsulfanyl)-2,3-dihydro-1H-isoindole-1,3-dione",O=C1N(SC2CCCCC2)C(=O)c3ccccc13,-4.3237941723,G1,3.2635000000000023,71.40600000000003,3.0,0.0,4.0,2.0,1.0,1.0,2.0,3.0,37.38,110.68064313389604,1.7886750299312109
"(4-tert-butyl-3-hydroxy-2,6-dimethylphenyl)acetonitrile",Cc1cc(c(O)c(C)c1CC#N)C(C)(C)C,-4.2579024627,G1,3.372620000000002,65.59780000000003,2.0,1.0,2.0,1.0,1.0,0.0,0.0,1.0,44.02,97.53775346833456,3.465806550837109
cadmium(2+) ion sulfanediide,S=[Cd],-4.080623481,G1,0.6457,7.591,1.0,0.0,2.0,0.0,0.0,0.0,0.0,0.0,0.0,32.37979012814488,2.0
"diethyl (3,5-di-tert-butyl-4-hydroxybenzyl)phosphonate",CCO[P](=O)(Cc1cc(c(O)c(c1)C(C)(C)C)C(C)(C)C)OCC,-4.4728088442,G1,5.753300000000006,100.06930000000008,4.0,1.0,5.0,6.0,1.0,0.0,0.0,1.0,55.760000000000005,146.6599152342105,3.4613332696716355
diiron trimolybdenum dodecaoxide,[O--].[O--].[O--].[O--].[O--].[O--].[O--].[O--].[O--].[Fe+3].[Fe+3].[Mo].[Mo],-4.5716709895,G1,-1.0791999999999995,6.178499999999999,0.0,0.0,13.0,0.0,0.0,0.0,0.0,0.0,256.5,124.66267534363718,-0.0
"zinc(2+) ion bis(2,2-dimethyloctanoate)",[Zn++].CC(C)(C)CC(C)(C)CC([O-])=O.CC(C)(C)CC(C)(C)CC([O-])=O,-3.5342880969,G3,3.1751000000000023,94.95400000000008,4.0,0.0,5.0,6.0,0.0,0.0,0.0,0.0,80.25999999999999,167.47382210193877,-3.723076836639056e-07
"3,7-dimethyloct-6-enenitrile",CC(CCC=C(C)C)CC#N,-3.104157036,G1,3.282580000000002,48.05900000000003,1.0,0.0,1.0,4.0,0.0,0.0,0.0,0.0,23.79,69.72670670668349,3.400751537298328
2-nitrophenyl acetate,CC(=O)Oc1ccccc1[N+]([O-])=O,-2.1855239105,G1,1.5200999999999998,44.405400000000014,4.0,0.0,5.0,2.0,1.0,0.0,0.0,1.0,69.44,74.08933040034063,3.0435273546341013
"N-(4-amino-2,5-diethoxyphenyl)benzamide",CCOc1cc(NC(=O)c2ccccc2)c(OCC)cc1N,-2.4057571965,G1,3.318500000000001,87.58760000000004,4.0,2.0,5.0,6.0,2.0,0.0,0.0,2.0,73.58,129.59157333722231,2.307772870520781
"1,3-benzothiazole-2-thiol",S=C1Nc2ccccc2S1,-3.1515048921,G5,2.95889,47.00970000000001,2.0,1.0,3.0,0.0,2.0,0.0,0.0,2.0,15.79,67.33185914979505,3.007619546803024
1-phenylpyrazolidin-3-one,O=C1CCN(N1)c2ccccc2,-1.1448233011,G1,0.9279,46.54770000000003,2.0,1.0,3.0,1.0,1.0,1.0,1.0,2.0,32.34,70.96175228324772,2.163151357913761
1-(chloromethyl)-2-methylbenzene,Cc1ccccc1CCl,-3.0813269237,G1,2.7338200000000006,40.73600000000002,0.0,0.0,1.0,1.0,1.0,0.0,0.0,1.0,0.0,60.464553575171855,3.0065240073265844
prop-1-en-2-ylbenzene,CC(=C)c1ccccc1,-3.0080823215,G5,2.7197000000000005,41.15000000000002,0.0,0.0,0.0,1.0,1.0,0.0,0.0,1.0,0.0,55.83662643050253,2.981454614041131
2-methoxy-4-(prop-2-en-1-yl)phenol,COc1cc(CC=C)ccc1O,-2.1531779235,G3,2.1293,48.55980000000003,2.0,1.0,2.0,3.0,1.0,0.0,0.0,1.0,29.46,72.10934752660204,2.95955954722478
"1-Octadecanol, phosphate, potassium salt",[K].CCCCCCCCCCCCCCCCCC.O[P](O)(O)=O,-3.5298030639,G5,5.958400000000009,105.23690000000006,1.0,3.0,6.0,15.0,0.0,0.0,0.0,0.0,77.75999999999999,192.80397475252687,-6.392104220788277e-07
potassium hydroxysilanoylolate,[K+].O[Si]([O-])=O,-3.0044671735,G1,-5.2416,8.6593,2.0,1.0,5.0,0.0,0.0,0.0,0.0,0.0,60.36,73.33644973319022,0.0
sodium hydroxysilanoylolate,O.O.O.O.O.[Na+].[Na+].[O-][Si]([O-])=O,-3.2659206297,G1,-12.993099999999997,24.5095,3.0,0.0,11.0,0.0,0.0,0.0,0.0,0.0,220.69,108.6444514253234,-2.142857132653061e-09
"1,3-difluorobenzene",Fc1cccc(F)c1,-2.0003579549,G1,1.9648,26.358,0.0,0.0,2.0,0.0,1.0,0.0,0.0,1.0,0.0,45.76247392534943,3.077660437970554
cadmium(2+) ion carbonate,[Cd++].[O-]C([O-])=O,-2.1796827894,G1,-2.4495000000000005,5.396,3.0,0.0,4.0,0.0,0.0,0.0,0.0,0.0,63.19,48.77179220582693,0.0
(3Z)-hex-3-en-1-yl 2-methylpropanoate,CC\C=C/CCOC(=O)C(C)C,-3.1741873711,G1,2.541900000000001,49.845000000000034,2.0,0.0,2.0,5.0,0.0,0.0,0.0,0.0,26.3,74.60919435476539,3.3140735413076987
"1,1,2,3,3-pentamethyl-2,3,4,5,6,7-hexahydro-1H-inden-4-one",CC1C(C)(C)C2=C(C(=O)CCC2)C1(C)C,-3.2653422506,G3,3.738100000000003,62.61000000000005,1.0,0.0,1.0,0.0,0.0,0.0,2.0,2.0,17.07,92.9437552757865,2.596666247526767
2-(4-{2-[4-(2-hydroxyethoxy)phenyl]propan-2-yl}phenoxy)ethan-1-ol,CC(C)(c1ccc(OCCO)cc1)c2ccc(OCCO)cc2,-3.4517905533999995,G3,2.754700000000001,90.17360000000004,4.0,2.0,4.0,8.0,2.0,0.0,0.0,2.0,58.92,136.8586500897431,2.1292981493188137
bis(propan-2-yl)amine,CC(C)NC(C)C,0.0362422138,G1,1.3927999999999998,33.407699999999984,1.0,1.0,1.0,2.0,0.0,0.0,0.0,0.0,12.03,46.11382378342063,2.9532231745612925
tin(2+) ion oxalate,[Sn++].[O-]C(=O)C([O-])=O,-2.2740087187,G1,-3.894600000000001,15.768,4.0,0.0,5.0,0.0,0.0,0.0,0.0,0.0,80.25999999999999,56.09418769897373,0.0
magnesium(2+) ion carbonate,[Mg++].[O-]C([O-])=O,-2.8845018574,G3,-2.8278000000000003,11.15,3.0,0.0,4.0,0.0,0.0,0.0,0.0,0.0,63.19,44.7591364403616,0.0
"1,2-bis(2-methylpropyl) benzene-1,2-dicarboxylate",CC(C)COC(=O)c1ccccc1C(=O)OCC(C)C,-4.3838902648,G5,3.3122000000000025,76.68300000000005,4.0,0.0,4.0,6.0,1.0,0.0,0.0,1.0,52.60000000000001,119.63095892256436,2.815925753105677
"2-[({2,2,4-trimethyl-6-[({2-[(2-methylprop-2-enoyl)oxy]ethoxy}carbonyl)amino]hexyl}carbamoyl)oxy]ethyl 2-methylprop-2-enoate 2-[({2,4,4-trimethyl-6-[({2-[(2-methylprop-2-enoyl)oxy]ethoxy}carbonyl)amino]hexyl}carbamoyl)oxy]ethyl 2-methylprop-2-enoate",CC(CCNC(=O)OCCOC(=O)C(C)=C)CC(C)(C)CNC(=O)OCCOC(=O)C(C)=C,-4.619923834,G3,3.119900000000002,122.42640000000009,8.0,2.0,10.0,15.0,0.0,0.0,0.0,0.0,129.26,195.5887651656051,3.962106145181529
1-(2-ethylbutyl)cyclohexane-1-carboxylic acid,CCC(CC)CC1(CCCCC1)C(O)=O,-4.281694517,G1,3.847800000000002,61.84280000000005,1.0,1.0,2.0,5.0,0.0,1.0,1.0,1.0,37.3,93.06848109929942,2.672386231289719
dibutyl but-2-enedioate,CCCCOC(=O)\C=C\C(=O)OCCCC,-4.3135515372,G1,2.2292,60.87400000000004,4.0,0.0,4.0,8.0,0.0,0.0,0.0,0.0,52.60000000000001,96.61414591310928,3.6282159297250254
2-[(2-methylprop-2-enoyl)oxy]ethyl 2-methylprop-2-enoate,CC(=C)C(=O)OCCOC(=O)C(C)=C,-2.2613132646,G1,1.225,51.54600000000003,4.0,0.0,4.0,5.0,0.0,0.0,0.0,0.0,52.6,83.19465865213179,3.571887516567356
methanaminium chloride,[Cl-].C[NH3+],-1.796002246,G2,-4.137899999999999,8.8121,0.0,1.0,2.0,0.0,0.0,0.0,0.0,0.0,27.64,26.232234977391684,0.0
"1,2,3-trimethylbenzene; 1H-indene; 2,3-dihydro-1H-indene",Cc1cccc(C)c1C.C2Cc3ccccc3C2.C4C=Cc5ccccc45,-3.51623781,G3,7.043060000000007,118.30000000000004,0.0,0.0,0.0,0.0,3.0,0.0,2.0,5.0,0.0,164.14046752901024,1.1680555470767107e-07
benzyl 4-hydroxybenzoate,Oc1ccc(cc1)C(=O)OCc2ccccc2,-3.3249813225,G3,2.749200000000001,63.66830000000004,3.0,1.0,3.0,3.0,2.0,0.0,0.0,2.0,46.53,99.28768263610088,1.9594054671723933
(2E)-3-phenylprop-2-enenitrile,N#C/C=C/c1ccccc1,-2.0829703418000003,G1,2.22338,41.08900000000002,1.0,0.0,1.0,1.0,1.0,0.0,0.0,1.0,23.79,60.22920611197125,2.789949981500122
2-[(3-aminophenyl)sulfonyl]ethyl hydrogen sulfate,Nc1cccc(c1)[S](=O)(=O)CCO[S](O)(=O)=O,-1.4238808493,G1,-0.1380999999999997,60.407800000000016,6.0,2.0,9.0,5.0,1.0,0.0,0.0,1.0,123.76,99.077761542695,2.765085557651497
"(3E)-4-(2,6,6-trimethylcyclohex-2-en-1-yl)but-3-en-2-one",CC(=O)/C=C/C1C(=CCCC1(C)C)C,-3.2586779358,G3,3.5141000000000027,60.08300000000004,1.0,0.0,1.0,2.0,0.0,0.0,1.0,1.0,17.07,86.89504128273487,2.862289603243217
ethyl formate,CCOC=O,0.1514941879,G3,0.1793,17.689999999999998,2.0,0.0,2.0,2.0,0.0,0.0,0.0,0.0,26.3,30.744202586173408,2.4017152226171965
2-amino-4-sulfobenzoic acid,Nc1cc(ccc1C(O)=O)[S](O)(=O)=O,-1.3156745209,G1,0.2136999999999999,47.6283,4.0,3.0,7.0,2.0,1.0,0.0,0.0,1.0,117.69,79.72062779318667,3.339787385782996
4-(2-aminoethyl)phenol,NCCc1ccc(O)cc1,-1.1161078312,G1,0.8934,40.86520000000002,2.0,2.0,2.0,2.0,1.0,0.0,0.0,1.0,46.25,60.2954117974989,2.693803452362809
sodium 6-amino-5-[[2-[(cyclohexylmethylamino)sulphonyl]phenyl]azo]-4-hydroxynaphthalene-2-sulphonate,[Na+].CN(C1CCCCC1)[S](=O)(=O)c2ccccc2NNC3=C4C(=O)C=C(C=C4C=CC3=N)[S]([O-])(=O)=O,-2.7116859389,G1,-0.6578299999999975,129.78510000000009,9.0,3.0,13.0,7.0,1.0,1.0,3.0,4.0,159.56,232.33889215704528,3.609993390704239e-06
2-butoxyethyl benzoate,CCCCOCCOC(=O)c1ccccc1,-3.3224225356,G1,2.660100000000001,62.451500000000046,3.0,0.0,3.0,7.0,1.0,0.0,0.0,1.0,35.53,96.37461047933076,2.116728158652159
2-methoxy-4-nitroaniline,COc1cc(ccc1N)[N+]([O-])=O,-3.2045127381,G1,1.1856,44.06080000000001,4.0,1.0,5.0,2.0,1.0,0.0,0.0,1.0,78.38999999999999,68.90275688291297,3.134300249949544
zinc(2+) ion sulfanediide,S=[Zn],-2.9676237394,G4,0.6457,7.591,1.0,0.0,2.0,0.0,0.0,0.0,0.0,0.0,0.0,27.141437902374904,2.0
2-({3-[bis(carboxymethyl)amino]propyl}(carboxymethyl)amino)acetic acid,OC(=O)CN(CCCN(CC(O)=O)CC(O)=O)CC(O)=O,-1.4690725372,G1,-1.6810999999999965,68.04020000000003,6.0,4.0,10.0,12.0,0.0,0.0,0.0,0.0,155.68,119.73136292116152,4.336673146764226
"3,4,5-trifluorophenol",Oc1cc(F)c(F)c(F)c1,-0.1536096917,G1,1.8095,27.9808,1.0,1.0,4.0,0.0,1.0,0.0,0.0,1.0,20.23,54.722243080471685,3.310532874722407
hexanoic acid,CCCCCC(O)=O,-1.0522193787,G1,1.6513,31.77779999999998,1.0,1.0,2.0,4.0,0.0,0.0,0.0,0.0,37.3,49.51971745205236,2.822354554248032
"1,2,3-tributyl 2-hydroxypropane-1,2,3-tricarboxylate",CCCCOC(=O)CC(O)(CC(=O)OCCCC)C(=O)OCCCC,-3.5452709716000004,G1,2.5276000000000005,91.78480000000006,7.0,1.0,7.0,14.0,0.0,0.0,0.0,0.0,99.13,149.5627027134199,4.7973447223311965
"(2,4-dimethylcyclohex-3-en-1-yl)methyl acetate",CC1C=C(C)CCC1COC(C)=O,-3.2503985577,G1,2.541900000000001,52.27800000000004,2.0,0.0,2.0,2.0,0.0,0.0,1.0,1.0,26.3,79.96830531563279,2.396855637161826
2-ethylhexyl cyanoacetate,CCCCC(CC)COC(=O)CC#N,-3.2864784846,G1,2.6596800000000007,54.49500000000004,3.0,0.0,3.0,7.0,0.0,0.0,0.0,0.0,50.09,86.05631918281497,3.6146686382533137
"6-{[amino(phenyl)acetyl]amino}-3,3-dimethyl-7-oxo-4-thia-1-azabicyclo[3.2.0]heptane-2-carboxylic acid",CC1(C)S[C@@H]2[C@H](NC(=O)[C@H](N)c3ccccc3)C(=O)N2[C@H]1C(O)=O,-1.5390164423,G1,0.3181000000000002,89.02890000000005,5.0,3.0,8.0,4.0,1.0,2.0,2.0,3.0,112.73,143.1206585849213,1.711293315571299
4-[(4-aminophenyl)methyl]aniline,Nc1ccc(Cc2ccc(N)cc2)cc1,-2.2929334424000003,G1,2.4418000000000006,64.51480000000002,2.0,2.0,2.0,2.0,2.0,0.0,0.0,2.0,52.04,89.53322083398305,2.1467113756182017
"6-ethoxy-2,2,4-trimethyl-1,2-dihydroquinoline",CCOc1ccc2NC(C)(C)C=C(C)c2c1,-3.332762335,G5,3.692700000000002,68.96370000000003,2.0,1.0,2.0,2.0,1.0,0.0,1.0,2.0,21.26,97.31891326207126,2.41526997546782
nonanal,CCCCCCCCC=O,-3.1487064763,G5,2.935900000000001,44.057000000000016,1.0,0.0,1.0,7.0,0.0,0.0,0.0,0.0,17.07,63.82031004304618,2.703789901245323
1-(2-furyl)methanamine,NCc1occc1,1.0127047417,G1,0.7383000000000001,26.5994,2.0,1.0,2.0,1.0,1.0,0.0,0.0,1.0,39.16,41.93056519498312,2.762608341443769
"2,2,2-trifluoroethan-1-ol",OCC(F)(F)F,0.9998306582,G1,0.5410000000000001,13.140800000000002,1.0,1.0,4.0,0.0,0.0,0.0,0.0,0.0,20.23,32.39503310320087,3.168489872670569