Name,SMILES,Solubility,Group,MolLogP,MolMR,NumHAcceptors,NumHDonors,NumHeteroatoms,NumRotatableBonds,NumAromaticRings,NumSaturatedRings,NumAliphaticRings,RingCount,TPSA,LabuteASA,BalabanJ
prop-2-en-1-yl heptanoate,CCCCCCC(=O)OCC=C,-3.5976237668,G1,2.686000000000001,49.91500000000003,2.0,0.0,2.0,7.0,0.0,0.0,0.0,0.0,26.3,74.6091943547654,3.134308384476619
4-heptylphenol,CCCCCCCc1ccc(O)cc1,-3.6597017052,G1,3.9051000000000022,60.56980000000005,1.0,1.0,1.0,6.0,1.0,0.0,0.0,1.0,20.23,86.78023167246926,2.150399394372396
(4-nonylphenoxy)acetic acid,CCCCCCCCCc1ccc(OCC(O)=O)cc1,-3.8425967597,G1,4.443100000000004,81.26980000000006,2.0,1.0,3.0,11.0,1.0,0.0,0.0,1.0,46.53,121.51506745960636,2.1304990583726178
"5-(2-methylundecan-2-yldisulfanyl)-3H-1,3,4-thiadiazole-2-thione",CCCCCCCCCC(C)(C)SSC1=NNC(=S)S1,-3.9885639112,G1,6.860290000000005,97.43570000000004,5.0,1.0,6.0,11.0,1.0,0.0,0.0,1.0,28.68,139.8637836772505,2.095917340521986
"(4E)-3-methyl-5-(2,2,3-trimethylcyclopent-3-en-1-yl)pent-4-en-2-ol",CC(O)C(C)\C=C/C1CC=C(C)C1(C)C,-3.7860287034,G1,3.5519000000000025,65.62980000000005,1.0,1.0,1.0,3.0,0.0,0.0,1.0,1.0,20.23,93.89269504928372,2.622623104009031
2-amino-3-hydroxypropanehydrazide hydrochloride,[H+].[Cl-].NNC(=O)C(N)CO,0.5104628122,G1,-5.587599999999998,28.503300000000003,4.0,4.0,6.0,2.0,0.0,0.0,0.0,0.0,101.37,60.262562328775935,-2.449999819750014e-07
4-{1-[4-hydroxy-3-(prop-2-en-1-yl)phenyl]propyl}-2-(prop-2-en-1-yl)phenol,CC(C)(c1ccc(O)c(CC=C)c1)c2ccc(O)c(CC=C)c2,-3.9963835519,G1,4.8807000000000045,96.14360000000003,2.0,2.0,2.0,6.0,2.0,0.0,0.0,2.0,40.46,137.982237795154,2.4872231301108734
"[2-methyl-2-(2-methylpropyl)-1,3-dioxolan-4-yl]methanol",CC(C)CC1(C)OCC(CO)O1,-0.7059803773000001,G1,1.1564,45.770800000000015,3.0,1.0,3.0,3.0,0.0,1.0,1.0,1.0,38.69,73.67428100068292,2.4092366442153765
Sulfur hexafluoride,F[S](F)(F)(F)(F)F,-3.6731547352,G1,3.1694,14.239000000000004,0.0,0.0,7.0,0.0,0.0,0.0,0.0,0.0,0.0,35.1357870598539,4.4312936752559775
tris(6-methylheptyl)amine,CC(C)CCCCCN(CCCCCC(C)C)CCCCCC(C)C,-4.0572475801,G3,7.93760000000001,116.3580000000001,1.0,0.0,1.0,18.0,0.0,0.0,0.0,0.0,3.24,160.8927533291549,3.8724476734506537
1-benzyl-N-phenylpiperidin-4-amine,C1CN(CCC1Nc2ccccc2)Cc3ccccc3,-3.9542229462,G1,3.7631000000000014,84.80570000000006,2.0,1.0,2.0,4.0,2.0,1.0,1.0,3.0,15.27,120.98201471222288,1.4742925395564854
"4-bromo-2,2-diphenylbutanoic acid",OC(=O)C(CCBr)(c1ccccc1)c2ccccc2,-4.0694912575,G1,3.8423000000000025,79.71080000000005,1.0,1.0,3.0,5.0,2.0,0.0,0.0,2.0,37.3,120.7715692410286,2.646827326720738
Aldadiene,CC12CCC(=O)C=C1C=CC3C2CCC4(C)C3CCC45CCC(=O)O5,-4.1007061575,G1,4.370100000000003,94.67300000000006,3.0,0.0,3.0,0.0,0.0,3.0,5.0,5.0,43.370000000000005,149.43126302773803,1.534690869394722
disodium 4-[[(Z)-octadec-9-enyl]amino]-4-oxo-2-sulfonatobutanoate,[Na+].[Na+].CCCCCCCC\C=C/CCCCCCCCNC(=O)CC(C([O-])=O)[S]([O-])(=O)=O,-0.0195157831,G1,-2.798099999999991,115.57090000000008,6.0,1.0,10.0,20.0,0.0,0.0,0.0,0.0,126.42999999999998,238.8360077893302,-4.204994776019247e-06
"2,2,3,3,4,4,5,5-octafluoropentyl 2-methylprop-2-enoate",CC(=C)C(=O)OCC(F)(F)C(F)(F)C(F)(F)C(F)F,-4.0459673488,G5,3.2767000000000017,46.61800000000001,2.0,0.0,10.0,6.0,0.0,0.0,0.0,0.0,26.3,101.56853546377867,5.0785381872509685
"6,6-dimethylheptanoic acid",CC(C)(C)CCCCC(O)=O,-2.4750431492,G2,2.677500000000001,45.55880000000001,1.0,1.0,2.0,4.0,0.0,0.0,0.0,0.0,37.3,68.6145437952422,3.219082837847424
1-(methoxymethyl)-4-[4-(methoxymethyl)phenyl]benzene,COCc1ccc(cc1)c2ccc(COC)cc2,-4.0023686333,G1,3.6464000000000025,73.30400000000004,2.0,0.0,2.0,5.0,2.0,0.0,0.0,2.0,18.46,108.1753562421612,2.1473514099274564
1-[({[(tetradecyloxy)carbonyl]peroxy}carbonyl)oxy]tetradecane,CCCCCCCCCCCCCCOC(=O)OOC(=O)OCCCCCCCCCCCCCC,-4.3499005787,G3,10.609999999999992,147.02199999999988,6.0,0.0,6.0,26.0,0.0,0.0,0.0,0.0,71.06,222.02909277918465,3.281560216448919
sulfanylideneiron,S=[Fe],-3.6218288656,G1,0.6457,7.591,1.0,0.0,2.0,0.0,0.0,0.0,0.0,0.0,0.0,25.528563741226563,2.0
Dicyclopentadiene,C1C=CC2C3CC(C=C3)C12,-3.8202211698,G1,2.3846000000000007,41.47400000000001,0.0,0.0,0.0,0.0,0.0,1.0,3.0,3.0,0.0,61.62703053244281,2.0389644079043743
"6,10-dimethylundecan-2-one",CC(C)CCCC(C)CCCC(C)=O,-4.0051761335,G1,4.208100000000004,62.385000000000055,1.0,0.0,1.0,8.0,0.0,0.0,0.0,0.0,17.07,89.28007850063263,3.274850967739586
cyclooctene,C1CCC\C=C/CC1,-3.770339988,G4,2.8968000000000016,36.842,0.0,0.0,0.0,0.0,0.0,0.0,1.0,1.0,0.0,51.59841164289232,2.172380198442006
[disulfanediylbis(carbonothioylnitrilo)]tetramethane,CN(C)C(=S)SSC(=S)N(C)C,-4.1161961212,G5,2.0608,67.75200000000002,4.0,0.0,6.0,0.0,0.0,0.0,0.0,0.0,6.48,92.4473715717092,3.6934830872423
dimethoxy(2-methylpropyl)propan-2-ylsilane,CO[Si](CC(C)C)(OC)C(C)C,-4.0243009096,G1,2.7874000000000008,54.51500000000004,2.0,0.0,3.0,5.0,0.0,0.0,0.0,0.0,18.46,77.51352270520977,4.352707462790323
piperidine-4-carboxylic acid hydrochloride,[H+].[Cl-].OC(=O)C1CCNCC1,0.3840315922999999,G1,-2.812899999999998,34.3415,2.0,2.0,4.0,1.0,0.0,1.0,1.0,1.0,49.33,67.70164010417612,0.0
"3-ethyl 5-methyl 4-(2-chlorophenyl)-1,4-dihydro-2-[2-(1,3-dihydro-1,3-dioxo-(2H)isoindol-2-yl)-ethoxymethyl]-6-methyl-3,5-pyridinedicarboxylate",CCOC(=O)C1=C(COCCN2C(=O)c3ccccc3C2=O)NC(=C(C1c4ccccc4Cl)C(=O)OC)C,-4.5011269518,G1,3.6038000000000014,138.3316999999999,8.0,1.0,10.0,9.0,2.0,0.0,2.0,4.0,111.24,224.5363889538685,1.606045550386067
prop-2-en-1-yl 3-cyclohexylpropanoate,C=CCOC(=O)CCC1CCCCC1,-4.0624492536000005,G1,3.076100000000002,56.965000000000046,2.0,0.0,2.0,5.0,0.0,1.0,1.0,1.0,26.3,86.33324743002942,2.057173990050199
"methyl 2-[(4-ethoxy-6-methylamino-1,3,5-triazin-2-yl)carbamoylsulfamoyl]benzoate",CCOc1nc(NC)nc(NC(=O)N[S](=O)(=O)c2ccccc2C(=O)OC)n1,-4.387910768899999,G4,0.6089999999999994,97.66440000000004,10.0,3.0,13.0,7.0,2.0,0.0,0.0,2.0,161.5,160.2975910571207,2.235188890088708
calcium carbonate,[Ca++].[O-]C([O-])=O,-3.7802652447,G1,-2.8278000000000003,11.15,3.0,0.0,4.0,0.0,0.0,0.0,0.0,0.0,63.19,58.60500862748952,0.0
4-[(4-amino-3-methylphenyl)methyl]-2-methylaniline,Cc1cc(Cc2ccc(N)c(C)c2)ccc1N,-4.1506087086,G1,3.0586400000000014,73.98880000000003,2.0,2.0,2.0,2.0,2.0,0.0,0.0,2.0,52.04,102.26310506277626,2.2491822930475696
tributyl-2-thiourea,CCCCNC(=S)N(CCCC)CCCC,-4.1840665057,G1,3.563200000000003,76.89770000000006,1.0,1.0,3.0,9.0,0.0,0.0,0.0,0.0,15.27,106.78703250160514,3.883696473938532
bis(2-ethylhexyl)amine,CCCCC(CC)CNCC(CC)CCCC,-4.2367225564,G3,5.008800000000004,79.48170000000007,1.0,1.0,1.0,12.0,0.0,0.0,0.0,0.0,12.03,109.7632449273867,3.6146835764435066
4-[(4-amino-3-chlorophenyl)methyl]-2-chloroaniline,Nc1ccc(Cc2ccc(N)c(Cl)c2)cc1Cl,-4.2868907228,G1,3.7486000000000015,74.53480000000002,2.0,2.0,4.0,2.0,2.0,0.0,0.0,2.0,52.04,110.13975328774636,2.24918229304757
"(4E)-3,3-dimethyl-5-(2,2,3-trimethylcyclopent-3-en-1-yl)pent-4-en-2-ol",CC(O)C(C)(C)\C=C\C1CC=C(C)C1(C)C,-4.2167463336,G2,3.942000000000003,70.24680000000005,1.0,1.0,1.0,3.0,0.0,0.0,1.0,1.0,20.23,100.25763716368031,2.7440737503413293
"bis(2,4,4-trimethylpentyl)phosphinic acid",CC(CC(C)(C)C)C[P](O)(=O)CC(C)CC(C)(C)C,-4.366128471100001,G1,5.401400000000006,86.03130000000006,1.0,1.0,3.0,6.0,0.0,0.0,0.0,0.0,37.3,120.38388665419528,4.359263596918719
3-(4-fluorophenyl)-1-(4-sulfamoylphenyl)thiourea,N[S](=O)(=O)c1ccc(NC(=S)Nc2ccc(F)cc2)cc1,-2.9899599684,G1,2.282,84.0586,3.0,3.0,8.0,3.0,2.0,0.0,0.0,2.0,84.22,126.57814604673264,2.009916126193552
"ethyl 1-(4-methoxyphenyl)-7-oxo-6-[4-(2-oxopiperidin-1-yl)phenyl]-1H,4H,5H,6H,7H-pyrazolo[3,4-c]pyridine-3-carboxylate",CCOC(=O)c1nn(c2ccc(OC)cc2)c3C(=O)N(CCc13)c4ccc(cc4)N5CCCCC5=O,-4.6282058436,G1,3.7774000000000023,134.099,7.0,0.0,9.0,6.0,3.0,1.0,2.0,5.0,93.96999999999996,208.7517921538385,1.4984720169334529
"7-chloro-5-(2-chlorophenyl)-2-oxo-2,3-dihydro-1H-1,4-benzodiazepin-4-ium-4-olate",ON1CC(=O)N=C2C=CC(=CC2=C1c3ccccc3Cl)Cl,-4.4653328209,G1,2.0009,79.69450000000002,3.0,1.0,6.0,1.0,2.0,0.0,1.0,3.0,52.9,130.05937244458192,2.463337201674797
hexane,CCCCCC,-3.9441703352,G5,2.5866000000000007,29.81599999999998,0.0,0.0,0.0,3.0,0.0,0.0,0.0,0.0,0.0,40.563961599812586,2.3390923149762908
"N',N''''-hexane-1,6-diylbis(1-cyanoguanidine)",NC(NC#N)=NCCCCCCN=C(N)NC#N,-4.4346903729000005,G3,-0.6824399999999993,68.94420000000001,4.0,4.0,8.0,7.0,0.0,0.0,0.0,0.0,148.39999999999998,106.37904015329822,3.4261474346331675
"1,5-dimethyl-1-vinylhex-4-en-1-yl propionate",CCC(=O)OC(C)(CCC=C(C)C)C=C,-4.3823578934,G1,3.6307000000000023,63.65000000000004,2.0,0.0,2.0,6.0,0.0,0.0,0.0,0.0,26.3,93.01441766577098,4.247006492759319
docosyltrimethylazanium methyl sulfate,CCCCCCCCCCCCCCCCCCCCCC[N+](C)(C)C.CO[S]([O-])(=O)=O,-4.8359730654,G1,7.607500000000009,137.6196,4.0,0.0,6.0,22.0,0.0,0.0,0.0,0.0,66.43,201.7896253136783,0.0
10-Methoxyiminostilbene,COC1=Cc2ccccc2Nc3ccccc13,-4.5144193944,G1,3.8881000000000014,71.04670000000003,2.0,1.0,2.0,1.0,2.0,0.0,1.0,3.0,21.26,100.55129689615228,2.244315824694871
"3,7,11,15-tetramethylhexadec-1-en-3-ol",CC(C)CCCC(C)CCCC(C)CCCC(C)(O)C=C,-4.7086538251,G1,6.362500000000008,95.53980000000008,1.0,1.0,1.0,13.0,0.0,0.0,0.0,0.0,20.23,133.77778192137686,3.560874648442294
"[4-[(4-diethylaminophenyl)-phenylmethylidene]-1-cyclohexa-2,5-dienylidene]-diethylazanium; hydrogen sulfate",CCN(CC)c1ccc(cc1)[C+](c2ccccc2)c3ccc(cc3)N(CC)CC.O[S]([O-])(=O)=O,-2.0572883439,G1,5.402790000000005,139.32299999999995,5.0,1.0,7.0,9.0,3.0,0.0,0.0,3.0,83.91,203.9874426934252,7.394251040034812e-07
"13-ethyl-3-methoxy-6,7,11,12,13,14,15,16-octahydro-17H-cyclopenta[a]phenanthren-17-one (non-preferred name)",CC[C@]12CCC3=C(CCc4cc(OC)ccc34)[C@@H]1CCC2=O,-4.772922847,G1,4.564300000000004,87.92400000000005,2.0,0.0,2.0,2.0,1.0,1.0,3.0,4.0,26.3,132.10856355782818,1.8050107736496348
"3-methoxyestra-2,5(10)-dien-17-ol",COC1=CCC2=C(CC[C@@H]3[C@@H]2CC[C@]4(C)[C@@H](O)CC[C@@H]34)C1,-4.7610719313,G1,4.204300000000004,83.63780000000006,2.0,1.0,2.0,1.0,0.0,2.0,4.0,4.0,29.46,127.81345739018596,1.6061283658201322
"2-ethyl-2-[2-(6-methoxy-3,4-dihydronaphthalen-1(2H)-ylidene)ethyl]cyclopentane-1,3-dione",CCC1(C/C=C2/CCCc3cc(OC)ccc23)C(=O)CCC1=O,-4.838817118500001,G1,4.133400000000004,90.49800000000006,3.0,0.0,3.0,4.0,1.0,1.0,2.0,3.0,43.370000000000005,137.2759168114012,1.898753623524068
manganese(2+) ion carbonate,[Mn++].[O-]C([O-])=O,-4.5005872378,G1,-2.4495000000000005,5.396,3.0,0.0,4.0,0.0,0.0,0.0,0.0,0.0,63.19,39.0848609044861,0.0
"7-chloro-5-(2-chlorophenyl)-2-oxo-2,3-dihydro-1H-1,4-benzodiazepin-3-yl acetate",CC(=O)OC1N=C(c2ccccc2Cl)c3cc(Cl)ccc3NC1=O,-5.028666922799999,G1,3.672100000000001,92.72670000000002,4.0,1.0,7.0,2.0,2.0,0.0,1.0,3.0,67.75999999999999,147.7956832968407,2.227574568188736
"3-methoxyestra-2,5(10)-dien-17-one",COC1=CCC2=C(CCC3C2CCC4(C)C3CCC4=O)C1,-4.9798745042000006,G1,4.412500000000004,82.63800000000005,2.0,0.0,2.0,1.0,0.0,2.0,4.0,4.0,26.3,127.18074573803374,1.6202178300019114
N-phenylnaphthalen-1-amine,N(c1ccccc1)c2cccc3ccccc23,-4.8638916314,G2,4.583400000000003,73.67270000000003,1.0,1.0,1.0,2.0,3.0,0.0,0.0,3.0,12.03,100.72002404090424,2.063095014249582
2-(benzoyloxy)ethyl benzoate,O=C(OCCOC(=O)c1ccccc1)c2ccccc2,-5.0700925015,G1,2.700400000000001,73.44900000000004,4.0,0.0,4.0,5.0,2.0,0.0,0.0,2.0,52.6,116.49840044224877,1.7195651335450064
oxonickel,O=[Ni],-4.5191656494,G1,-0.1213,0.6865,1.0,0.0,2.0,0.0,0.0,0.0,0.0,0.0,17.07,20.21721624293661,2.0
"2,4a,5,8a-tetramethyl-1,2,3,4,4a,7,8,8a-octahydronaphthalen-1-yl formate",CC1CCC2(C)C(=CCCC2(C)C1OC=O)C,-5.0311421132,G1,3.710600000000002,68.54000000000005,2.0,0.0,2.0,2.0,0.0,1.0,2.0,2.0,26.3,104.42224261968998,2.4182563202692435
"methyl 3-(3,5-di-tert-butyl-4-hydroxyphenyl)propanoate",COC(=O)CCc1cc(c(O)c(c1)C(C)(C)C)C(C)(C)C,-5.1235829068,G1,4.092800000000003,85.84380000000006,3.0,1.0,3.0,3.0,1.0,0.0,0.0,1.0,46.53,127.88000957400293,3.305743739619247
"3,9-bis(cyclohex-3-en-1-yl)-2,4,8,10-tetraoxaspiro[5.5]undecane",C1CC(CC=C1)C2OCC3(CO2)COC(OC3)C4CCC=CC4,-5.2397354439,G1,3.4312000000000022,86.77900000000005,4.0,0.0,4.0,2.0,0.0,2.0,4.0,4.0,36.92,138.3598593265106,1.2671416390069912
"4-(3,4,5,6-tetramethyloctan-2-yl)phenol",CCC(C)C(C)C(C)CCc1ccc(O)cc1,-5.1824053879,G3,4.643100000000005,74.21080000000005,1.0,1.0,1.0,6.0,1.0,0.0,0.0,1.0,20.23,105.87505801565908,2.420000187399063
"13-ethyl-3-methoxy-1,4,6,7,8,9,11,12,13,14,15,16-dodecahydro-17H-cyclopenta[a]phenanthren-17-one (non-preferred name)",CC[C@]12CC[C@H]3[C@@H](CCC4=C3CC=C(C4)OC)[C@@H]1CCC2=O,-5.363817292,G3,4.802600000000004,87.25500000000005,2.0,0.0,2.0,2.0,0.0,2.0,4.0,4.0,26.3,133.54568785243032,1.6254207288493987
dicopper(2+) ion chloride trihydroxide,[OH-].[OH-].[OH-].[Cl-].[Cu++].[Cu++],-5.2539851522,G4,-3.5314000000000005,5.8074,3.0,0.0,6.0,0.0,0.0,0.0,0.0,0.0,90.0,63.155071842137765,-0.0
zinc bis(dimethyldithiocarbamate),[Zn++].CN(C)C([S-])=S.CN(C)C([S-])=S,-5.4987140306,G1,0.7571000000000002,67.30000000000003,4.0,0.0,7.0,0.0,0.0,0.0,0.0,0.0,6.48,115.0004819575266,-1.4285714124489798e-07
"6,10,14-trimethylpentadecan-2-one",CC(C)CCCC(C)CCCC(C)CCCC(C)=O,-5.4746775177,G1,6.014500000000006,85.40000000000008,1.0,0.0,1.0,12.0,0.0,0.0,0.0,0.0,17.07,121.10478907261566,3.4209675307731207
oxomanganese,O=[Mn],-4.921453892,G1,-0.1213,0.6865,1.0,0.0,2.0,0.0,0.0,0.0,0.0,0.0,17.07,20.67942235663529,2.0
manganese,[Mn],-4.894774805,G1,-0.0025,0.0,0.0,0.0,1.0,0.0,0.0,0.0,0.0,0.0,0.0,17.964098032124472,0.0
lanthanum(3+) ion trifluoride,[F-].[F-].[F-].[La+3],-5.535398327699999,G4,-8.988,0.0,0.0,0.0,4.0,0.0,0.0,0.0,0.0,0.0,0.0,49.65817021741289,-0.0
"1,3-diphenylpropane-1,3-dione",O=C(CC(=O)c1ccccc1)c2ccccc2,-5.6579029620000005,G1,3.142300000000001,66.16200000000003,2.0,0.0,2.0,4.0,2.0,0.0,0.0,2.0,34.14,99.90636786883836,2.079926562733872
4-methyl-2-[(2-nitrophenyl)diazenyl]phenol,CC1=CC(=N/Nc2ccccc2[N+]([O-])=O)\C(=O)C=C1,-5.7475958635,G1,2.4479000000000006,72.05810000000001,5.0,1.0,6.0,3.0,1.0,0.0,1.0,2.0,84.6,108.83077921462218,2.258269694455488
oxocopper,O=[Cu],-5.3051166643,G4,-0.1213,0.6865,1.0,0.0,2.0,0.0,0.0,0.0,0.0,0.0,17.07,20.67942235663529,2.0
"6-Methylene-3,20-dioxopregn-4-en-17-yl acetate",CC(=O)OC1(CCC2C3CC(=C)C4=CC(=O)CCC4(C)C3CCC12C)C(C)=O,-6.1077931611,G1,4.575300000000004,106.41100000000009,4.0,0.0,4.0,2.0,0.0,3.0,4.0,4.0,60.440000000000005,167.3285005101043,1.7456809340677022
"N,N-dibutyl({[(dibutylcarbamothioyl)sulfanyl]methyl}sulfanyl)carbothioamide",CCCCN(CCCC)C(=S)SCSC(=S)N(CCCC)CCCC,-6.2405235691,G1,6.784500000000008,128.02300000000008,4.0,0.0,6.0,14.0,0.0,0.0,0.0,0.0,6.48,175.7916569725155,4.308655951425966
"ethyl 1-(4-methoxyphenyl)-6-(4-nitrophenyl)-7-oxo-1H,4H,5H,6H,7H-pyrazolo[3,4-c]pyridine-3-carboxylate",CCOC(=O)c1nn(c2ccc(OC)cc2)c3C(=O)N(CCc13)c4ccc(cc4)[N+]([O-])=O,-6.6187193264,G1,3.168700000000002,114.54940000000003,8.0,0.0,10.0,6.0,3.0,0.0,1.0,4.0,116.79999999999998,182.66453268763735,1.7900501661502548
dimethyl[3-(octadecyloxy)propyl]amine,CCCCCCCCCCCCCCCCCCOCCCN(C)C,-6.852054029800001,G1,7.216200000000008,113.5360000000001,2.0,0.0,2.0,21.0,0.0,0.0,0.0,0.0,12.47,159.64135644426526,2.96116322458486
tantalum,[Ta],-6.9291741838,G1,-0.0025,0.0,0.0,0.0,1.0,0.0,0.0,0.0,0.0,0.0,0.0,23.001880613197383,0.0
2-(2-hydroxybenzoyl)-5-methoxyphenol,COc1ccc(c(O)c1)C(=O)c2ccccc2O,-7.2738841077,G1,2.337400000000001,66.19810000000003,4.0,2.0,4.0,3.0,2.0,0.0,0.0,2.0,66.76,104.08191638829688,2.437975300422153
2-oxo-N-[4-({4-[(2-oxoazepane-1-carbonyl)amino]phenyl}methyl)phenyl]azepane-1-carboxamide,O=C1CCCCCN1C(=O)Nc2ccc(Cc3ccc(NC(=O)N4CCCCCC4=O)cc3)cc2,-7.763261261599999,G1,5.146400000000004,134.08939999999996,4.0,2.0,8.0,4.0,2.0,2.0,2.0,4.0,98.82,205.21644684224952,1.2970857468393606
{4-[(4-methylphenyl)sulfanyl]phenyl}(phenyl)methanone,Cc1ccc(Sc2ccc(cc2)C(=O)c3ccccc3)cc1,-7.6154082599,G1,5.377220000000005,91.61850000000004,2.0,0.0,2.0,4.0,3.0,0.0,0.0,3.0,17.07,134.56010788582728,1.751565866875736
"bis(2,3,4,4-tetramethylpentan-2-yl)trisulfane",CC(C(C)(C)C)C(C)(C)SSSC(C)(C)C(C)C(C)(C)C,-9.129966133,G1,7.937600000000008,108.16900000000008,3.0,0.0,3.0,6.0,0.0,0.0,0.0,0.0,0.0,146.11252122136693,4.61889379369208
zinc(2+) ion dinitrate,[Zn++].[O-][N+]([O-])=O.[O-][N+]([O-])=O,0.7217551526,G1,-0.4807000000000001,20.722800000000003,6.0,0.0,9.0,0.0,0.0,0.0,0.0,0.0,132.4,61.0659640578746,-7.199999951999999e-08
"[(7,7-dimethyloctanoyl)oxy]bario 7,7-dimethyloctanoate",[Ba++].CC(C)(C)CC(C)(C)CC([O-])=O.CC(C)(C)CC(C)(C)CC([O-])=O,-1.698832456,G3,2.796800000000001,100.70800000000008,4.0,0.0,5.0,6.0,0.0,0.0,0.0,0.0,80.25999999999999,195.1666346176968,-3.723076836639056e-07
tetrabutylphosphonium bromide,[Br-].CCCC[P+](CCCC)(CCCC)CCCC,0.41483097,G1,3.208400000000001,86.02000000000008,0.0,0.0,2.0,12.0,0.0,0.0,0.0,0.0,0.0,127.81066531659528,0.0
"2-aminopropane-1,3-diol",NC(CO)CO,0.9744271172,G1,-1.7017,22.146999999999995,3.0,3.0,3.0,2.0,0.0,0.0,0.0,0.0,66.48,36.39749345802751,2.7541847860376616
disilver(1+) sulfate,[Ag+].[Ag+].O[S](O)(=O)=O,-1.5849835397999998,G1,-0.6577999999999999,14.1774,2.0,2.0,7.0,0.0,0.0,0.0,0.0,0.0,74.6,72.27298825831492,-7.999999835000003e-08
manganese(2+) ion dichloride,O.O.O.O.[Cl-].[Cl-].[Mn++],0.5826413073,G1,-9.2933,14.455199999999998,0.0,0.0,7.0,0.0,0.0,0.0,0.0,0.0,126.0,64.19329825088082,-0.0
"2-amino-2-(hydroxymethyl)propane-1,3-diol",NC(CO)(CO)CO,0.7906283690000001,G5,-2.3391999999999995,28.175799999999995,4.0,4.0,4.0,3.0,0.0,0.0,0.0,0.0,86.71000000000001,47.55666932462013,3.5832125652604643
"N,N-diethylethanaminium bromide",[Br-].CC[NH+](CC)CC,0.5951972853999999,G1,-3.064999999999997,32.58569999999998,0.0,1.0,2.0,3.0,0.0,0.0,0.0,0.0,4.44,62.83649738246344,0.0
tris(2-hydroxyethyl)methylammonium methyl sulphate,CO[S]([O-])(=O)=O.C[N+](CCO)(CCO)CCO,0.3926664196,G1,-2.4970999999999965,58.749000000000045,7.0,3.0,9.0,7.0,0.0,0.0,0.0,0.0,127.12000000000002,101.60336851112731,0.0
diammonium 2-[(carboxylatomethyl)disulfanyl]acetate,[NH4+].[NH4+].[O-]C(=O)CSSCC([O-])=O,0.4596030518,G1,-1.3800000000000008,46.89959999999999,6.0,2.0,8.0,5.0,0.0,0.0,0.0,0.0,153.26,77.66327194047231,-4.049999451000077e-07
"D-Glucitol, propoxylated",OCCCOCC(OCCCO)C(OCCCO)C(OCCCO)C(COCCCO)OCCCO,0.053341445,G1,-1.145199999999993,130.81480000000008,12.0,6.0,12.0,29.0,0.0,0.0,0.0,0.0,176.76,214.5795935491689,5.8671800185182805
"5-methyl-[1,2,4]triazolo[1,5-a]pyrimidin-7-ol",CC1=CC(=O)N2NC=NC2=N1,-1.3471955313,G3,-0.27398,38.34470000000001,4.0,1.0,5.0,0.0,2.0,0.0,0.0,2.0,63.05,61.70342524039397,3.024307136383608
"{[5-(6-amino-9H-purin-9-yl)-3,4-dihydroxyoxolan-2-yl]methoxy}[({[hydroxy(sodiooxy)phosphoryl]oxy}(sodiooxy)phosphoryl)oxy]phosphinic acid",[Na+].[Na+].Nc1ncnc2n(cnc12)[C@@H]3O[C@H](CO[P](O)(=O)O[P]([O-])(=O)O[P](O)([O-])=O)[C@@H](O)[C@H]3O,0.0168879621,G1,-8.885000000000005,91.0381,16.0,5.0,23.0,8.0,2.0,1.0,1.0,3.0,284.79,228.04512831720055,2.722497743592552e-06
"phosphocreatine, sodium salt",[Na+].[Na+].CN(CC(O)=O)C(N)=N[P]([O-])([O-])=O,0.3126582838,G1,-8.845800000000002,39.4947,4.0,2.0,11.0,3.0,0.0,0.0,0.0,0.0,142.11,130.7192966182572,-7.199998788750212e-07
barium(2+) ion bis(2-ethylhexanoate),[Ba++].CCCCC(CC)C([O-])=O.CCCCC(CC)C([O-])=O,-0.905288847,G3,1.5246000000000002,82.38000000000005,4.0,0.0,5.0,10.0,0.0,0.0,0.0,0.0,80.25999999999999,169.70686616011037,-2.945454481041324e-07
"sodium (2R,3R,4S,5R,6R)-2,3,4,5,6,7-hexahydroxyheptanoate",[Na+].OC[C@@H](O)[C@@H](O)[C@H](O)[C@@H](O)[C@@H](O)C([O-])=O,0.3170701984,G1,-8.462899999999998,42.12680000000002,8.0,6.0,9.0,6.0,0.0,0.0,0.0,0.0,161.51,113.063461702337,0.0
disodium 2-oxopentanedioate,[Na+].[Na+].[O-]C(=O)CCC(=O)C([O-])=O,0.4295256052,G1,-9.1565,24.254999999999995,5.0,0.0,7.0,4.0,0.0,0.0,0.0,0.0,97.32999999999998,113.09885253536324,-4.0499995331250553e-07
"decane-1,10-diamine",NCCCCCCCCCCN,1.5277010030000002,G1,2.0246,55.044800000000045,2.0,2.0,2.0,9.0,0.0,0.0,0.0,0.0,52.04,76.70351145142448,2.72724281291869
disodium 4-[(2-methylnonyl)oxy]-4-oxo-3-sulfonatobutanoate,[Na+].[Na+].CC(C)CCCCCCCO.OC(=O)CC(C(O)=O)[S](O)(=O)=O,0.0810654195,G1,-4.214599999999993,84.85100000000006,5.0,4.0,11.0,11.0,0.0,0.0,0.0,0.0,149.20000000000002,193.6505103806548,-1.6384615005516708e-07