Name,SMILES,Solubility,Group,MolLogP,MolMR,NumHAcceptors,NumHDonors,NumHeteroatoms,NumRotatableBonds,NumAromaticRings,NumSaturatedRings,NumAliphaticRings,RingCount,TPSA,LabuteASA,BalabanJ
2-methyltetrahydrofuran,CC1CCCO1,0.2069,G5,1.1853,24.64799999999999,1.0,0.0,1.0,0.0,0.0,1.0,1.0,1.0,9.23,38.30673356139363,2.184105569636068
soman,CC(O[P](C)(F)=O)C(C)(C)C,-0.9383,G1,3.230000000000002,44.64050000000002,2.0,0.0,4.0,2.0,0.0,0.0,0.0,0.0,26.3,67.70659528562496,4.097767717974698
2-(bis(1-methylethyl)amino)ethanol,CC(C)N(CCO)C(C)C,-1.0829,G1,1.0975,44.063800000000015,2.0,1.0,2.0,4.0,0.0,0.0,0.0,0.0,23.47,63.84791325100518,3.728002409310191
"l-valine, n-acetyl-",CC(C)[C@H](NC(C)=O)C(O)=O,-0.3599,G1,0.2316999999999998,40.0785,2.0,2.0,4.0,3.0,0.0,0.0,0.0,0.0,66.4,65.59604385010077,4.11529460833615
"phenol, 2,2'-thiobis 4,6-dichloro-",Oc1c(Cl)cc(Cl)cc1Sc2cc(Cl)cc(Cl)c2O,-4.9495,G1,5.862600000000001,80.37660000000001,3.0,2.0,7.0,2.0,2.0,0.0,0.0,2.0,40.46,133.41313976284496,2.4729202264566297
"pentanoic acid, 2-methyl-",CCCC(C)C(O)=O,-0.889,G3,1.5072,31.70779999999998,1.0,1.0,2.0,3.0,0.0,0.0,0.0,0.0,37.3,49.51971745205236,3.318087197283996
ethyl lactate,CCOC(=O)C(C)O,0.9276,G1,-0.0697,28.313799999999983,3.0,1.0,3.0,2.0,0.0,0.0,0.0,0.0,46.53,48.26832056716263,3.329150037184473
isobutyl isobutyrate,CC(C)COC(=O)C(C)C,-2.1590000000000003,G3,1.8416,40.635000000000005,2.0,0.0,2.0,3.0,0.0,0.0,0.0,0.0,26.3,62.568913158156434,3.4037533061532064
2-hydroxymethylfuran,OCc1occc1,1.0083,G1,0.7719,24.630799999999997,2.0,1.0,2.0,1.0,1.0,0.0,0.0,1.0,33.370000000000005,41.38490825016642,2.762608341443769
"1,2-benzenediol, 4-(1,1-dimethylethyl)-",CC(C)(C)c1ccc(O)c(O)c1,-1.9197,G3,2.395300000000001,48.47160000000004,2.0,2.0,2.0,0.0,1.0,0.0,0.0,1.0,40.46,72.47963908147543,3.138261335720987
alpha-terpineol,CC1=CC[C@@H](CC1)C(C)(C)O,-2.337,G4,2.5037000000000007,47.39580000000002,1.0,1.0,1.0,1.0,0.0,0.0,1.0,1.0,20.23,69.12252962388156,2.5385757360885064
"benzenesulfonyl chloride, 4-iodo-",Cl[S](=O)(=O)c1ccc(I)cc1,-4.2686,G1,2.2187,52.197800000000015,2.0,0.0,5.0,1.0,1.0,0.0,0.0,1.0,34.14,83.12570910240471,3.2015159310664942
alpha-methylbenzyl alcohol,CC(O)c1ccccc1,-1.7969,G5,1.7399,37.07580000000001,1.0,1.0,1.0,1.0,1.0,0.0,0.0,1.0,20.23,54.95552110048619,2.848234050597751
(dichloromethyl)benzene,ClC(Cl)c1ccccc1,-2.809,G2,3.1628000000000016,40.88900000000002,0.0,0.0,2.0,1.0,1.0,0.0,0.0,1.0,0.0,64.40287768765691,2.848234050597751
picolinic acid,OC(=O)c1ccccn1,0.892,G1,0.7797999999999999,31.196299999999997,2.0,1.0,3.0,1.0,1.0,0.0,0.0,1.0,50.19,51.971749067079855,2.981454614041131
populin,OCc1ccccc1O[C@@H]2O[C@H](COC(=O)c3ccccc3)[C@@H](O)[C@H](O)[C@H]2O,-2.8925,G1,0.2222999999999998,96.39870000000003,8.0,4.0,8.0,6.0,2.0,1.0,1.0,3.0,125.68000000000002,161.0812958845531,1.6715106818270646
methyl gallate,COC(=O)c1cc(O)c(O)c(O)c1,-1.2399,G1,0.5899999999999996,42.77590000000002,5.0,3.0,5.0,1.0,1.0,0.0,0.0,1.0,86.99000000000001,73.81905593442886,3.20372282479125
"2,6-dichloro-4-nitroaniline",Nc1c(Cl)cc(cc1Cl)[N+]([O-])=O,-4.4709,G1,2.4838000000000005,47.5288,3.0,1.0,6.0,1.0,1.0,0.0,0.0,1.0,69.16,78.03080199277282,3.306535412749064
"4-oxo-4h-pyran-2,6-dicarboxylic acid",OC(=O)C1=CC(=O)C=C(O1)C(O)=O,-1.1097,G1,0.0361999999999999,38.8966,4.0,2.0,6.0,2.0,1.0,0.0,0.0,1.0,104.81,71.03913797682254,3.350192975980872
carvone,CC(=C)C1CC=C(C)C(=O)C1,-2.0628,G1,2.4879000000000007,46.30200000000003,1.0,0.0,1.0,1.0,0.0,0.0,1.0,1.0,17.07,67.80021493954504,2.698294200312726
p-(sec-butyl)phenol,CCC(C)c1ccc(O)cc1,-2.1945,G1,2.9057000000000013,46.81280000000004,1.0,1.0,1.0,2.0,1.0,0.0,0.0,1.0,20.23,67.6854053292794,2.8057445316140472
gamma-terpinene,CC(C)C1=CCC(=CC1)C,-4.1958,G1,3.308900000000002,45.91200000000003,0.0,0.0,0.0,1.0,0.0,0.0,1.0,1.0,0.0,63.63869283950127,2.5385118917425267
terephthalic acid,OC(=O)c1ccc(cc1)C(O)=O,-4.0444,G3,1.083,40.360600000000005,2.0,2.0,4.0,2.0,1.0,0.0,0.0,1.0,74.6,68.07279905276974,3.0061498337295465
2-(diethylamino)-ethanol,CCN(CC)CCO,0.9311,G1,0.3205,34.87379999999999,2.0,1.0,2.0,4.0,0.0,0.0,0.0,0.0,23.47,51.11802902221197,3.0743734120651838
4-cyanopyridine,N#Cc1ccncc1,-0.4154,G1,0.95328,28.952,2.0,0.0,2.0,0.0,1.0,0.0,0.0,1.0,36.68,47.4085728963088,3.049388908161901
3-cyanopyridine,N#Cc1cccnc1,0.1128,G1,0.95328,28.952,2.0,0.0,2.0,0.0,1.0,0.0,0.0,1.0,36.68,47.4085728963088,3.049388908161901
tetrahydropyran-2-methanol,OCC1CCCCO1,0.9349,G1,0.5478000000000001,30.676799999999982,2.0,1.0,2.0,1.0,0.0,1.0,1.0,1.0,29.46,49.465909427986254,2.125016255414672
4-ethylmorpholine,CCN1CCOCC1,0.9386,G3,0.3385,32.932999999999986,2.0,0.0,2.0,1.0,0.0,1.0,1.0,1.0,12.47,50.43150934599361,2.125016255414672
cloprop,CC(Oc1cccc(Cl)c1)C(O)=O,-2.2232,G1,2.1919,49.17780000000002,2.0,1.0,4.0,3.0,1.0,0.0,0.0,1.0,46.53,80.89879677131513,2.688220172626696
hyoscyamine,CN1[C@@H]2CC[C@H]1CC(C2)OC(=O)[C@H](CO)c3ccccc3,-1.91,G1,1.9309,79.95580000000005,4.0,1.0,4.0,4.0,1.0,2.0,2.0,3.0,49.77,125.26323882275126,1.632677623313254
4-hydroxydiphenylmethane,Oc1ccc(Cc2ccccc2)cc1,-3.4009,G1,2.9830000000000005,57.35480000000003,1.0,1.0,1.0,2.0,2.0,0.0,0.0,2.0,20.23,83.64767319215363,2.155110851234288
"diphenylurea, sym",O=C(Nc1ccccc1)Nc2ccccc2,-3.1508,G2,3.3306000000000013,65.52540000000003,1.0,2.0,3.0,2.0,2.0,0.0,0.0,2.0,41.13,94.11468590721746,1.9521941477943936
"1,3,5-triethylbenzene",CCc1cc(CC)cc(CC)c1,-7.0641,G1,3.373800000000002,54.57600000000004,0.0,0.0,0.0,3.0,1.0,0.0,0.0,1.0,0.0,75.6210558058766,3.011257354290591
"methanediamine, n,n,n',n'-tetraethyl-",CCN(CC)CN(CC)CC,-0.1995,G1,1.6275,50.70900000000003,2.0,0.0,2.0,6.0,0.0,0.0,0.0,0.0,6.48,71.17845528340915,3.581293116611908
entprol,CC(O)CN(CCN(CC(C)O)CC(C)O)CC(C)O,0.534,G1,-0.8863999999999979,79.60320000000006,6.0,4.0,6.0,11.0,0.0,0.0,0.0,0.0,87.4,122.18010086417624,4.348925842055261
triallylamine,C=CCN(CC=C)CC=C,-1.7395,G1,1.8464,47.03100000000003,1.0,0.0,1.0,6.0,0.0,0.0,0.0,0.0,3.24,63.34981251665301,3.5761876073373
tri n-butylamine,CCCCN(CCCC)CCCC,-3.1157,G5,3.6887000000000025,61.16400000000006,1.0,0.0,1.0,9.0,0.0,0.0,0.0,0.0,3.24,84.51344795639562,3.467990238339422
(2-bromoethyl)benzene,BrCCc1ccccc1,-3.6757,G1,2.624000000000001,43.940000000000026,0.0,0.0,1.0,2.0,1.0,0.0,0.0,1.0,0.0,64.02883495393154,2.61489994009295
n-methylbenzylamine,CNCc1ccccc1,0.9166,G1,1.406,39.205700000000014,1.0,1.0,1.0,2.0,1.0,0.0,0.0,1.0,12.03,55.71114953189822,2.61489994009295
4-methylacetanilide,CC(=O)Nc1ccc(C)cc1,-2.0946,G3,1.95342,45.48270000000002,1.0,1.0,2.0,1.0,1.0,0.0,0.0,1.0,29.1,66.23761374633858,2.7362980721056545
thiacetazone,CC(=O)Nc1ccc(cc1)/C=N/NC(N)=S,-3.429,G1,0.8120999999999998,68.2608,3.0,3.0,6.0,3.0,1.0,0.0,0.0,1.0,79.51,98.71654749465591,2.6043534448757444
p-toluenesulfonic acid,Cc1ccc(cc1)[S](O)(=O)=O,0.5564,G3,1.24172,40.993600000000015,2.0,1.0,4.0,1.0,1.0,0.0,0.0,1.0,54.37,65.4249812439342,3.2015159310664942
"2-propenoic acid, 3-(4-methoxyphenyl)-, 2-ethoxy",CCOCCOC(=O)/C=C/c1ccc(OC)cc1,-2.6995,G1,2.2881,69.48000000000005,4.0,0.0,4.0,7.0,1.0,0.0,0.0,1.0,44.760000000000005,107.16349479105,2.3520273849290265
chlorphenesin,OCC(O)COc1ccc(Cl)cc1,-1.3067,G2,1.072,50.03960000000003,3.0,2.0,4.0,4.0,1.0,0.0,0.0,1.0,49.69,81.53150842346736,2.411261457917634
1-phenyldecane,CCCCCCCCCCc1ccccc1,-7.959,G1,5.369800000000005,72.75600000000006,0.0,0.0,0.0,9.0,1.0,0.0,0.0,1.0,0.0,101.08082426346309,1.8867858752137916
"2,5-tetrahydrofurandimethanol",OCC1CCC(CO)O1,0.8789,G1,-0.4814000000000002,32.06659999999999,3.0,2.0,3.0,2.0,0.0,1.0,1.0,1.0,49.69,54.260143180182254,2.204974083399939
1-hexyn-3-ol,CCCC(O)C#C,-0.4121,G1,0.7806,29.747799999999987,1.0,1.0,1.0,2.0,0.0,0.0,0.0,0.0,20.23,44.35742074386788,3.040482576057923
ethyl chloroacetate,CCOC(=O)CCl,-0.8005,G1,0.7883,27.35299999999999,2.0,0.0,3.0,2.0,0.0,0.0,0.0,0.0,26.3,47.412410927451695,3.002590528674132
methyl acetoacetate,COC(=O)CC(C)=O,0.6341,G3,0.1384999999999998,27.313999999999982,3.0,0.0,3.0,2.0,0.0,0.0,0.0,0.0,43.370000000000005,47.6356089150104,3.3954996118673995
s-butylacetate,CCC(C)OC(C)=O,-1.2727,G1,1.348,31.518999999999984,2.0,0.0,2.0,2.0,0.0,0.0,0.0,0.0,26.3,49.83902892936324,3.236426783100137
"butanoic acid, 1,2-ethanediyl ester",CCCC(=O)OCCOC(=O)CCC,-2.6069,G1,1.6729999999999998,51.73400000000004,4.0,0.0,4.0,7.0,0.0,0.0,0.0,0.0,52.6,84.57386471650031,3.2823051857661723
"hexanedioic acid, bis(2-methoxyethyl) ester",COCCOC(=O)CCCCC(=O)OCCOC,-1.2665,G1,0.926,64.13800000000005,6.0,0.0,6.0,11.0,0.0,0.0,0.0,0.0,71.06,107.53083940430732,3.3233194240262938
ethyl heptanoate,CCCCCCC(=O)OCC,-2.7369,G5,2.5199000000000007,45.39200000000002,2.0,0.0,2.0,6.0,0.0,0.0,0.0,0.0,26.3,68.93385527255305,3.040425665876032
ethyl octanoate,CCCCCCCC(=O)OCC,-3.3907,G1,2.910000000000001,50.00900000000004,2.0,0.0,2.0,7.0,0.0,0.0,0.0,0.0,26.3,75.29879738694966,3.0296226214745263
quinhydrone,Oc1ccc(O)cc1.O=C2C=CC(=O)C=C2,-1.7305,G1,1.3483999999999998,58.06560000000002,4.0,2.0,4.0,0.0,1.0,0.0,1.0,2.0,74.6,92.15336144598768,1.599999977875001e-07
3-heptanone,CCCCC(=O)CC,-1.4242,G3,2.1557000000000004,34.822999999999986,1.0,0.0,1.0,4.0,0.0,0.0,0.0,0.0,17.07,51.09042581425295,2.988598647973156
"2,5-piperazinedione",O=C1CNC(=O)CN1,-0.8312,G1,-1.7675999999999992,26.0194,2.0,2.0,4.0,0.0,0.0,1.0,1.0,1.0,58.2,46.25101478479375,2.400854042379075
"1-propanol, 2-(2-hydroxypropoxy)-",CC(O)COC(C)CO,0.8723,G1,-0.2354,34.18059999999999,3.0,2.0,3.0,4.0,0.0,0.0,0.0,0.0,49.69,55.26597433371149,3.0608205611627866
3-octanone,CCCCCC(=O)CC,-1.693,G3,2.5458000000000007,39.440000000000005,1.0,0.0,1.0,5.0,0.0,0.0,0.0,0.0,17.07,57.455367928649565,2.9730624080867365
"decanedioic acid, dimethyl ester",COC(=O)CCCCCCCCC(=O)OC,-3.2831,G3,2.4532000000000007,60.968000000000046,4.0,0.0,4.0,9.0,0.0,0.0,0.0,0.0,52.60000000000001,97.30374894529356,3.0976081049326942
"1-propyne, 3-bromo-",BrCC#C,-0.9022,G1,1.0145,22.626999999999995,0.0,0.0,1.0,0.0,0.0,0.0,0.0,0.0,0.0,34.33590825412339,2.4330963097956344
1-butyne,CCC#C,-1.2753,G3,1.0295999999999998,19.124,0.0,0.0,0.0,0.0,0.0,0.0,0.0,0.0,0.0,26.833302762878645,2.4330963097956344
1-propanethiol,CCCS,-1.6021,G1,1.3262,24.14399999999999,1.0,1.0,1.0,1.0,0.0,0.0,0.0,0.0,0.0,32.62420192002449,1.9747448713915892
1-bromo-2-chloroethane,ClCCBr,-1.3177,G1,1.6201,24.514,0.0,0.0,2.0,1.0,0.0,0.0,0.0,0.0,0.0,39.27500697474919,1.9747448713915892
3-chloropropylene,ClCC=C,-1.3562,G3,1.4112,20.916999999999994,0.0,0.0,1.0,1.0,0.0,0.0,0.0,0.0,0.0,31.082798451320183,2.2968352619191386
allylamine,NCC=C,1.2434,G1,0.1311,19.2514,1.0,1.0,1.0,1.0,0.0,0.0,0.0,0.0,26.02,26.11942292145123,2.2968352619191386
"1,2-diaminoethane",NCCN,1.2211,G2,-1.0962,18.10880000000001,2.0,2.0,2.0,1.0,0.0,0.0,0.0,0.0,52.04,25.783974536251588,1.9747448713915892
allyl alcohol,OCC=C,1.236,G2,0.1646999999999999,17.282799999999998,1.0,1.0,1.0,1.0,0.0,0.0,0.0,0.0,20.23,25.57376597663452,2.2968352619191386
ethylene glycol,OCCO,1.2071,G2,-1.029,14.171600000000002,2.0,2.0,2.0,1.0,0.0,0.0,0.0,0.0,40.46,24.69266064661818,1.9747448713915892
glyoxal,O=CC=O,1.2363,G1,-0.6158000000000001,12.128,2.0,0.0,2.0,1.0,0.0,0.0,0.0,0.0,34.14,23.42723734231369,2.7320508075688776
taurine,NCC[S](O)(=O)=O,-0.1906,G1,-1.1670999999999996,25.47,3.0,2.0,5.0,2.0,0.0,0.0,0.0,0.0,80.39,42.07271984927949,3.602196822415083
isethionic acid,OCC[S](O)(=O)=O,0.8992,G1,-1.1334999999999995,23.501399999999997,3.0,2.0,5.0,2.0,0.0,0.0,0.0,0.0,74.6,41.5270629044628,3.602196822415083
"2-methyl-2,4-pentanediol",CC(O)CC(C)(C)O,0.9275,G1,0.5282,32.59559999999998,2.0,2.0,2.0,2.0,0.0,0.0,0.0,0.0,40.46,50.15242910420461,3.388924101358251
sarin,CC(C)O[P](C)(F)=O,0.8536,G1,2.2038,30.859499999999983,2.0,0.0,4.0,2.0,0.0,0.0,0.0,0.0,26.3,48.61176894243514,3.5623157642674084
tetraethyl pyrophosphate,CCO[P](=O)(OCC)O[P](=O)(OCC)OCC,0.5373,G1,3.3652000000000024,62.80200000000004,7.0,0.0,9.0,10.0,0.0,0.0,0.0,0.0,80.29,101.9607933250904,4.786871873258736
octamethyltrisiloxane,C[Si](C)(C)O[Si](C)(C)O[Si](C)(C)C,-6.8424,G1,3.391200000000002,66.34400000000004,2.0,0.0,5.0,4.0,0.0,0.0,0.0,0.0,18.46,86.15721213938389,4.252851184729936
trichlorourethan,NC(=O)OCC(Cl)(Cl)Cl,-1.2843,G1,1.4519,35.8254,2.0,1.0,6.0,1.0,0.0,0.0,0.0,0.0,52.32000000000001,66.99389196383113,3.394970924416841
4-methoxy-4-methyl-2-pentanone,COC(C)(C)CC(C)=O,0.3326,G1,1.3905,36.386,2.0,0.0,2.0,3.0,0.0,0.0,0.0,0.0,26.3,56.20397104375985,3.713999809664675
1-bromo-3-methylbutane,CC(C)CCBr,-2.886,G1,2.4274000000000004,33.24899999999999,0.0,0.0,1.0,2.0,0.0,0.0,0.0,0.0,0.0,48.06656709105734,2.6272148478988635
"1,3-butanediol",CC(O)CCO,1.0452,G1,-0.2503999999999999,23.383599999999998,2.0,2.0,2.0,2.0,0.0,0.0,0.0,0.0,40.46,37.4225448754114,2.6272148478988635
aldol,CC(O)CC=O,1.055,G1,-0.0438,22.361799999999995,2.0,1.0,2.0,2.0,0.0,0.0,0.0,0.0,37.3,36.78983322325915,2.8141442217770303
"acetamide, 2-cyano-",NC(=O)CC#N,0.1893,G1,-0.6146200000000002,19.4244,2.0,1.0,3.0,1.0,0.0,0.0,0.0,0.0,66.88,35.363127735147955,3.1275799516775438
butyric acid,CCCC(O)=O,-0.1669,G4,0.8711,22.543799999999997,1.0,1.0,2.0,2.0,0.0,0.0,0.0,0.0,37.3,36.78983322325915,2.831257109931365
n-methyl glycine,CNCC(O)=O,0.5273,G1,-0.7096000000000002,21.5625,2.0,2.0,3.0,2.0,0.0,0.0,0.0,0.0,49.33,35.97475329247059,2.831257109931365
2-dimethylaminoethanol,CN(C)CCO,1.0499,G1,-0.4597000000000001,25.63979999999999,2.0,1.0,2.0,2.0,0.0,0.0,0.0,0.0,23.47,38.38814479341875,2.6272148478988635
"2,4-dimethylpentane",CC(C)CC(C)C,-4.2605,G1,2.688500000000001,34.292999999999985,0.0,0.0,0.0,2.0,0.0,0.0,0.0,0.0,0.0,46.92890371420919,2.9532231745612925
4-methyl-2-pentanol,CC(C)CC(C)O,-0.7945,G3,1.4133,31.135799999999985,1.0,1.0,1.0,2.0,0.0,0.0,0.0,0.0,20.23,45.3581953520086,2.9532231745612925
acetic anhydride,CC(=O)OC(C)=O,0.0702,G1,0.096,22.44699999999999,3.0,0.0,3.0,0.0,0.0,0.0,0.0,0.0,43.370000000000005,41.27066680061378,3.318019590380522
"2(5h)-furanone, 5-methylene-",C=C1OC(=O)C=C1,-0.9827,G1,0.6131,24.371999999999996,2.0,0.0,2.0,0.0,0.0,0.0,1.0,1.0,26.3,41.089049597068886,2.759543614305127
diethyl 3-methyl-5-pyrazolyl phosphate,CCO[P](=O)(OCC)Oc1cc(C)[nH]n1,-2.3696,G1,2.27802,54.81120000000002,5.0,1.0,7.0,6.0,1.0,0.0,0.0,1.0,73.44,88.54362202484127,2.6981710261565124
m-chlorotoluene,Cc1cccc(Cl)c1,-3.5228,G1,2.6484200000000007,36.189,0.0,0.0,1.0,0.0,1.0,0.0,0.0,1.0,0.0,54.09961146077524,3.077660437970554
metaldehyde (tetramer),CC1OC(C)OC(C)OC(C)O1,-2.8997,G3,1.4504,42.18800000000002,4.0,0.0,4.0,0.0,0.0,1.0,1.0,1.0,36.92,72.7421955931041,2.450052921667673
ethyl isovalerate,CCOC(=O)CC(C)C,-1.8135,G5,1.5956,36.088,2.0,0.0,2.0,3.0,0.0,0.0,0.0,0.0,26.3,56.20397104375983,3.2711920488970017
"2,4,6-collidine",Cc1cc(C)nc(C)c1,-0.5394,G1,2.00686,38.44800000000001,1.0,0.0,1.0,0.0,1.0,0.0,0.0,1.0,12.89,55.7458774436333,3.165670309917317
4-methyl-2-pentyl acetate,CC(C)CC(C)OC(C)=O,-2.0451,G1,1.9841,40.68300000000001,2.0,0.0,2.0,3.0,0.0,0.0,0.0,0.0,26.3,62.56891315815644,3.431380738339312
4-methylpyridine,Cc1ccncc1,1.0309,G1,1.39002,28.973999999999997,1.0,0.0,1.0,0.0,1.0,0.0,0.0,1.0,12.89,43.01599321484008,3.0214653097240864
thiophenol,Sc1ccccc1,-2.1204,G1,1.9753,33.694,1.0,1.0,1.0,0.0,1.0,0.0,0.0,1.0,0.0,48.58646978289869,3.0214653097240864
3-methylpyridine,Cc1cccnc1,1.0309,G1,1.39002,28.973999999999997,1.0,0.0,1.0,0.0,1.0,0.0,0.0,1.0,12.89,43.01599321484008,3.0214653097240864
n-methylmorpholine,CN1CCOCC1,0.995,G1,-0.0516,28.315999999999985,2.0,0.0,2.0,0.0,0.0,1.0,1.0,1.0,12.47,44.066567231597,2.1229179499593664
"piperazine, 2-methyl-",CC1CNCCN1,0.6378,G3,-0.4323000000000001,30.334399999999988,2.0,2.0,2.0,0.0,0.0,1.0,1.0,1.0,24.06,44.29291269910284,2.1229179499593664
2-methylpyrazine,Cc1cnccn1,1.0263,G1,0.7850199999999998,26.76899999999999,2.0,0.0,2.0,0.0,1.0,0.0,0.0,1.0,25.78,42.2356411957866,3.0214653097240864
dibutyl sebacate,CCCCOC(=O)CCCCCCCCC(=O)OCCCC,-3.8955,G4,4.7938000000000045,88.67000000000007,4.0,0.0,4.0,15.0,0.0,0.0,0.0,0.0,52.60000000000001,135.49340163167324,3.2259727928316795
"hexanedioic acid, bis(2-ethoxyethyl) ester",CCOCCOC(=O)CCCCC(=O)OCCOCC,-2.065,G1,1.7062,73.37200000000006,6.0,0.0,6.0,13.0,0.0,0.0,0.0,0.0,71.06,120.26072363310054,3.3244017748416343
3-hexyn-2-ol,CCC#CC(C)O,-0.4121,G1,0.7806,29.747799999999984,1.0,1.0,1.0,0.0,0.0,0.0,0.0,0.0,20.23,44.35742074386787,3.236502566584802
isobutyl vinyl ether,CC(C)COC=C,-1.5236,G3,1.8025,30.986999999999984,1.0,0.0,1.0,3.0,0.0,0.0,0.0,0.0,9.23,44.98790379713521,2.8099823316091586
"1,3-dibromopropane",BrCCCBr,-2.0747,G1,2.166300000000001,32.20499999999999,0.0,0.0,2.0,2.0,0.0,0.0,0.0,0.0,0.0,49.20423046790548,2.19060968716425
2-pentene,CC\C=C/C,-2.5384,G1,1.9725,25.10499999999999,0.0,0.0,0.0,1.0,0.0,0.0,0.0,0.0,0.0,33.50941645323172,2.622415807990217
n-butylamine,CCCCN,1.1359,G1,0.7452000000000001,23.9624,1.0,1.0,1.0,2.0,0.0,0.0,0.0,0.0,26.02,33.17396806803209,2.19060968716425
ethylene cyanohydrin,OCCC#N,1.1483,G1,-0.10762,17.3158,2.0,1.0,2.0,1.0,0.0,0.0,0.0,0.0,44.02,30.65594869028749,2.483699570591265
butanethiol,CCCCS,-2.1792,G1,1.7163,28.76099999999999,1.0,1.0,1.0,2.0,0.0,0.0,0.0,0.0,0.0,38.9891440344211,2.19060968716425
"ethanol, 2-hydrazino-",NNCCO,1.1186,G1,-1.5579999999999998,19.2759,3.0,3.0,3.0,2.0,0.0,0.0,0.0,0.0,58.28,30.758315795277905,2.19060968716425
2-methoxyethanol,COCCO,1.1186,G1,-0.3748999999999999,18.9618,2.0,1.0,2.0,2.0,0.0,0.0,0.0,0.0,29.46,31.37691423832566,2.19060968716425
sec-butylacetate,CC(C)COC(C)=O,-1.2657,G5,1.2055,31.470999999999982,2.0,0.0,2.0,2.0,0.0,0.0,0.0,0.0,26.3,49.83902892936324,3.0500782919131915
"acetone, semicarbazone",CC(C)=NNC(N)=O,-0.2674,G1,0.0505000000000001,31.502099999999995,2.0,2.0,4.0,1.0,0.0,0.0,0.0,0.0,67.47999999999999,47.750810857778994,3.446714884438101
ethyl decanoate,CCCCCCCCCC(=O)OCC,-4.1006,G1,3.6902000000000026,59.24300000000005,2.0,0.0,2.0,9.0,0.0,0.0,0.0,0.0,26.3,88.0286816157429,3.014825784459536
diethyl sebacate,CCOC(=O)CCCCCCCCC(=O)OCC,-3.5091,G1,3.2334000000000023,70.20200000000006,4.0,0.0,4.0,11.0,0.0,0.0,0.0,0.0,52.60000000000001,110.03363317408676,3.162653055346669
isoamyl formate,CC(C)CCOC=O,-1.5206,G3,1.2055,31.470999999999982,2.0,0.0,2.0,4.0,0.0,0.0,0.0,0.0,26.3,49.83902892936323,2.814002148389726
2-methoxyethyl acetate,COCCOC(C)=O,0.9276,G1,0.1959000000000001,28.508999999999983,3.0,0.0,3.0,3.0,0.0,0.0,0.0,0.0,35.53,48.58763204447351,2.822354554248032
"1,4-dichlorobutane",ClCCCCCl,-0.92,G1,2.2442,30.673999999999992,0.0,0.0,2.0,3.0,0.0,0.0,0.0,0.0,0.0,48.44060982478272,2.3390923149762908
"1,4-dichloro-2-butene(trans)",ClC/C=C/CCl,-2.1675,G3,2.0202,30.57999999999999,0.0,0.0,2.0,2.0,0.0,0.0,0.0,0.0,0.0,47.75100679259846,2.734385993561548
n-pentylamine,CCCCCN,1.0597,G1,1.1353,28.57939999999999,1.0,1.0,1.0,3.0,0.0,0.0,0.0,0.0,26.02,39.53891018242869,2.3390923149762908
1-pentanethiol,CCCCCS,-2.8248,G1,2.1064000000000003,33.377999999999986,1.0,1.0,1.0,3.0,0.0,0.0,0.0,0.0,0.0,45.35408614881771,2.3390923149762908
2-chloroethyl vinyl ether,ClCCOC=C,-2.3951,G1,1.3853,26.86899999999999,1.0,0.0,2.0,3.0,0.0,0.0,0.0,0.0,9.23,42.56128579522367,2.4884037718761123
2-ethoxyethanol,CCOCCO,1.0452,G1,0.0152,23.578799999999998,2.0,1.0,2.0,3.0,0.0,0.0,0.0,0.0,29.46,37.741856352722266,2.3390923149762908
piperazine,C1CNCCN1,1.0648,G1,-0.8208,25.739399999999996,2.0,2.0,2.0,0.0,0.0,1.0,1.0,1.0,24.06,37.92797058470623,2.0
morpholine,C1COCCN1,1.0599,G1,-0.3938000000000001,23.688699999999997,2.0,1.0,2.0,0.0,0.0,1.0,1.0,1.0,21.26,37.49165363060507,2.0
diisobutylamine,CC[C@H](C)[NH2+][C@H](C)CC,-1.769,G1,1.1468,41.43140000000001,0.0,1.0,1.0,4.0,0.0,0.0,0.0,0.0,16.61,58.84370801221385,3.2230469044906185
"acetic acid, 2,2'-oxybis-",OC(=O)COCC(O)=O,0.4927,G1,-0.8277999999999999,26.090599999999995,3.0,2.0,5.0,4.0,0.0,0.0,0.0,0.0,83.83000000000001,50.8591343050058,3.1028259423155773
heptanoic acid,CCCCCCC(O)=O,-1.6646,G1,2.0414,36.39479999999999,1.0,1.0,2.0,5.0,0.0,0.0,0.0,0.0,37.3,55.884659566448974,2.828868134909685
ethoxyethylacetate,CCOCCOC(C)=O,0.2716,G1,0.5860000000000001,33.12599999999999,3.0,0.0,3.0,4.0,0.0,0.0,0.0,0.0,35.53,54.95257415887011,2.828868134909685
decanedioic acid,OC(=O)CCCCCCCCC(O)=O,-2.3059,G3,2.2764,52.20760000000004,2.0,2.0,4.0,9.0,0.0,0.0,0.0,0.0,74.6,83.93524176187861,2.9895441287192144