Name,SMILES,Solubility,Group,MolLogP,MolMR,NumHAcceptors,NumHDonors,NumHeteroatoms,NumRotatableBonds,NumAromaticRings,NumSaturatedRings,NumAliphaticRings,RingCount,TPSA,LabuteASA,BalabanJ
"l-Glutamic acid, N-coco acyl derivs., disodium salts",[Na+].[Na+].N[C@@H](CCC([O-])=O)C([O-])=O,0.3719654625999999,G1,-9.398300000000004,27.223399999999994,5.0,1.0,7.0,4.0,0.0,0.0,0.0,0.0,106.28,114.2772211323322,-4.049999518500058e-07
zinc dibenzoate,[Zn++].[O-]C(=O)c1ccccc1.[O-]C(=O)c2ccccc2,-1.8168417251,G1,0.097699999999999,61.54500000000003,4.0,0.0,5.0,2.0,2.0,0.0,0.0,2.0,80.25999999999999,123.01905245492787,3.239999954910001e-07
2-methyloxirane,CC1CO1,0.8325704879000001,G4,0.4051,15.414,1.0,0.0,1.0,0.0,0.0,1.0,1.0,1.0,12.53,25.57684933260041,2.171098317873574
N-(butoxymethyl)prop-2-enamide,CCCCOCNC(=O)C=C,-0.6536630282,G1,1.0628,44.06670000000001,2.0,1.0,3.0,6.0,0.0,0.0,0.0,0.0,38.33,67.42917230958022,3.0128585388016296
dibromane,[Br-],-0.3762292432999999,G1,-2.996,0.0,0.0,0.0,1.0,0.0,0.0,0.0,0.0,0.0,0.0,17.881179872351204,0.0
sodium 3-[(2-carboxyethyl)(dodecyl)amino]propanoate,[Na+].CCCCCCCCCCCCN(CCC(O)=O)CCC([O-])=O,-0.0407296334,G1,-0.1719999999999972,90.16080000000008,4.0,1.0,6.0,17.0,0.0,0.0,0.0,0.0,80.66999999999999,169.0280119699668,0.0
sodium [methyl(oleoyl)amino]acetate,[Na+].CCCCCCCC/C=C/CCCCCCCC(=O)N(C)CC([O-])=O,-0.0975222259999999,G1,1.2362000000000004,102.09600000000007,3.0,0.0,5.0,17.0,0.0,0.0,0.0,0.0,60.440000000000005,182.6390015287764,0.0
(2R)-2-hydroxy-N-(2-hydroxyethyl)propanamide,CC(O)C(=O)NCCO,1.3070323786,G1,-1.5243,31.77629999999999,3.0,3.0,4.0,3.0,0.0,0.0,0.0,0.0,69.56,53.498871273459805,3.2754791212791776
oxolan-2-ylmethanol,OCC1CCCO1,0.3887739198,G3,0.1576999999999999,26.05979999999999,2.0,1.0,2.0,1.0,0.0,1.0,1.0,1.0,29.46,43.10096731358964,2.1399633186493645
{2-[(2-methylprop-2-enoyl)oxy]ethoxy}phosphonic acid,CC(=C)C(=O)OCCO.O[P](O)(O)=O,-0.9602557176,G1,-0.8306,47.121700000000025,4.0,4.0,8.0,3.0,0.0,0.0,0.0,0.0,124.29000000000002,80.88180273396733,0.0
sodium 4-ethenylbenzene-1-sulfonate,[Na+].[O-][S](=O)(=O)c1ccc(C=C)cc1,-0.0332510813,G1,-1.7622999999999984,44.496200000000016,3.0,0.0,5.0,2.0,1.0,0.0,0.0,1.0,57.2,99.51371994885852,1.4399996634000815e-06
"pentane-2,4-dione",CC(=O)CC(C)=O,0.1864485079,G5,0.5545,25.97899999999999,2.0,0.0,2.0,2.0,0.0,0.0,0.0,0.0,34.14,42.52206368550351,3.318019590380522
"1,3-dimethyl propanedioate",COC(=O)CC(=O)OC,0.0273419683,G1,-0.2775000000000001,28.648999999999987,4.0,0.0,4.0,2.0,0.0,0.0,0.0,0.0,52.60000000000001,52.74915414451728,3.4713176263221484
"trimagnesium(2+) ion bis(2-hydroxypropane-1,2,3-tricarboxylate)",[Mg].[Mg].[Mg].OC(=O)CC(O)(CC(O)=O)C(O)=O.OC(=O)CC(O)(CC(O)=O)C(O)=O,-1.5461258216999998,G3,-3.639399999999996,91.44440000000004,8.0,8.0,17.0,10.0,0.0,0.0,0.0,0.0,264.26,209.89213548184097,-1.1999999757656257e-07
"disodium (2R,3R,4S,5R,6R)-2,3,4,5,6,7-hexahydroxyheptanoate (2S,3R,4S,5R,6R)-2,3,4,5,6,7-hexahydroxyheptanoate",[Na+].OC[C@@H](O)[C@@H](O)[C@H](O)[C@@H](O)C(O)C([O-])=O,0.7066663199,G1,-8.462899999999998,42.12680000000002,8.0,6.0,9.0,6.0,0.0,0.0,0.0,0.0,161.51,113.063461702337,0.0
"1,1,3,3-tetramethylguanidine",CN(C)C(=N)N(C)C,0.9386229258,G1,0.0443699999999998,35.1007,1.0,1.0,3.0,0.0,0.0,0.0,0.0,0.0,30.330000000000005,50.40403782508751,3.65123357893369
"1,3-dihydroxypropan-2-yl 2-sulfanylacetate 2,3-dihydroxypropyl 2-sulfanylacetate",OCC(O)COC(=O)CS,0.7793742068,G1,-1.1874,37.90460000000001,5.0,3.0,5.0,4.0,0.0,0.0,0.0,0.0,66.75999999999999,64.21762098276037,3.2581847008164337
2-{2-[2-(2-hydroxyethoxy)ethoxy]ethoxy}ethan-1-ol,OCCOCCOCCOCCO,0.7116903978,G1,-0.979199999999999,46.62860000000003,5.0,2.0,5.0,10.0,0.0,0.0,0.0,0.0,68.15,78.22294902151847,2.758149818433293
"3-methylpentane-1,5-diol",CC(CCO)CCO,0.927470714,G1,0.3873,32.56959999999998,2.0,2.0,2.0,4.0,0.0,0.0,0.0,0.0,40.46,50.15242910420461,2.9196126414385533
bis(2-hydroxyethyl)azanium acetate,CC(O)=O.OCCNCCO,0.7820188759000001,G1,-1.3484999999999996,40.3511,4.0,4.0,5.0,4.0,0.0,0.0,0.0,0.0,89.79,65.66387829358165,0.0
methanol,CO,1.4942803838999998,G3,-0.3915,8.1428,1.0,1.0,1.0,0.0,0.0,0.0,0.0,0.0,20.23,13.533484780025564,1.0
tris(2-hydroxyethyl)azanium acetate,CC(O)=O.OCCN(CCO)CCO,0.6793511375,G3,-1.6437999999999988,51.00720000000003,5.0,4.0,6.0,6.0,0.0,0.0,0.0,0.0,101.23,83.39796776116621,0.0
Sulfolane,O=[S]1(=O)CCCC1,-0.079806903,G1,0.195,27.88779999999999,2.0,0.0,3.0,0.0,0.0,1.0,1.0,1.0,34.14,43.453644599276736,2.762020467830416
2-hydroxyethyl 2-methylprop-2-enoate,CC(=C)C(=O)OCCO,-0.1144208137,G1,0.098,32.85879999999999,3.0,1.0,3.0,3.0,0.0,0.0,0.0,0.0,46.53,53.94365964937498,3.3940489484742136
3-[1-hydroxy-2-(methylamino)ethyl]phenol hydrochloride,Cl.CNCC(O)c1cccc(O)c1,-0.308924931,G1,1.0667999999999995,54.24130000000003,3.0,3.0,4.0,3.0,1.0,0.0,0.0,1.0,52.49,83.81765240323628,1.4399996060001125e-06
3-methoxy-3-methylbutan-1-ol,COC(C)(C)CCO,-0.072529286,G1,0.7938000000000001,32.79079999999998,2.0,1.0,2.0,3.0,0.0,0.0,0.0,0.0,29.46,50.47174058151548,3.3733815525636603
"zinc O,O,O',O'-tetrabutyl bis(phosphorodithioate)",[Zn++].CCCCO[P]([S-])(=S)OCCCC.CCCCO[P]([S-])(=S)OCCCC,-2.5083839395,G1,6.779900000000007,126.74000000000008,8.0,0.0,11.0,16.0,0.0,0.0,0.0,0.0,36.92,200.95054112111225,-4.114285586632658e-07
sodium 4-[(E)-2-(2-hydroxynaphthalen-1-yl)diazen-1-yl]naphthalene-1-sulfonate,[Na+].[O-][S](=O)(=O)c1ccc(N\N=C2\C(=O)C=Cc3ccccc23)c4ccccc14,-2.4263930478,G1,0.1600000000000023,102.5539,6.0,1.0,8.0,3.0,3.0,0.0,1.0,4.0,98.66,183.55337455166855,2.249997698252414e-06
zinc(2+) ion bis(2-ethylhexanoate),[Zn++].CCCCC(CC)C([O-])=O.CCCCC(CC)C([O-])=O,0.4554354087,G3,1.9029,76.62600000000006,4.0,0.0,5.0,10.0,0.0,0.0,0.0,0.0,80.25999999999999,142.01405364435232,-2.945454481041324e-07
sodium bis(butan-2-yl) sulfanidyl(sulfanylidene)phosphonite,[Na+].CCC(C)O[P]([S-])(=S)OC(C)CC,-2.4221431699,G1,0.3919999999999999,63.32600000000004,4.0,0.0,6.0,6.0,0.0,0.0,0.0,0.0,18.46,120.13124504193746,0.0
6-[(1-formyloctyl)amino]hexanoic acid,CC(C)CCCCCC(=O)NCCCCCC(O)=O,-2.7708536118,G3,3.3541000000000016,77.03650000000006,2.0,2.0,4.0,12.0,0.0,0.0,0.0,0.0,66.4,116.51558076527368,3.2342815791193558
nonanoic acid,CCCCCCCCC(O)=O,-2.7221977641,G5,2.821600000000001,45.62880000000001,1.0,1.0,2.0,7.0,0.0,0.0,0.0,0.0,37.3,68.6145437952422,2.8497612822334424
6-hydroxy-2-naphthoic acid,OC(=O)c1ccc2cc(O)ccc2c1,-3.2789428853,G1,2.2436,52.57210000000001,2.0,2.0,3.0,1.0,2.0,0.0,0.0,2.0,57.53,80.22799937006457,2.6724156651223945
Nickel subsulfide,[Ni][Ni][Ni]=[S]=S,-4.5143091680000005,G1,-0.0122999999999999,14.73,1.0,0.0,5.0,1.0,0.0,0.0,0.0,0.0,0.0,55.01106209784464,2.9339686496662654
1-tert-butyl-4-vinylbenzene,CC(C)(C)c1ccc(C=C)cc1,-4.5633510279000005,G1,3.627100000000003,55.23300000000004,0.0,0.0,0.0,1.0,1.0,0.0,0.0,1.0,0.0,74.93145277369236,2.99883701071891
"3,5-dimethylbenzoyl chloride",Cc1cc(C)cc(c1)C(Cl)=O,-3.3292897203,G1,2.6824400000000006,46.09950000000002,1.0,0.0,2.0,1.0,1.0,0.0,0.0,1.0,17.07,70.99101778961223,3.1860125339283023
copper(II) carbonate--copper(II) hydroxide (1:1),[OH-].[OH-].[Cu++].[Cu++].[O-]C([O-])=O,-5.1432191168,G4,-2.8056000000000005,9.2676,5.0,0.0,7.0,0.0,0.0,0.0,0.0,0.0,123.19,66.6419880335356,-7.4999999375e-09
"2,5-diphenyl-1,3-oxazole",o1c(cnc1c2ccccc2)c3ccccc3,-5.5532102962,G1,4.008600000000002,67.37500000000003,2.0,0.0,2.0,2.0,3.0,0.0,0.0,3.0,26.03,99.5595687766484,1.9942089545708055
dioxomanganese,O=[Mn]=O,-6.1610484037,G1,-0.2401,1.373,2.0,0.0,3.0,0.0,0.0,0.0,0.0,0.0,34.14,23.39474668114611,3.2659863237109046
"2-amino-2-ethylpropane-1,3-diol",CCC(N)(CO)CO,0.9015785325,G3,-0.9215000000000002,31.38099999999999,3.0,3.0,3.0,3.0,0.0,0.0,0.0,0.0,66.48,49.12737768682072,3.5832125652604643
bis(pyridin-1-ium) [(oxidodioxochromio)oxy]chromiumoylolate,O[Cr](=O)(=O)O[Cr](O)(=O)=O.c1ccncc1.c2ccncc2,0.3990871293999999,G1,0.5006000000000002,56.74260000000003,7.0,2.0,11.0,2.0,2.0,0.0,0.0,2.0,143.75,124.58774423282485,2.933333310683333e-07
"cyclohexane-1,2-diamine",[NH3+][C@H]1CCCC[C@H]1[NH3+],0.8890064826,G1,-1.218599999999999,31.8202,0.0,2.0,2.0,0.0,0.0,1.0,1.0,1.0,55.28,50.23791184030878,2.2794002709583667
sodium 2-sulfanylethan-1-olate,[Na+].[O-]CCS,0.9537303441,G1,-3.7195,18.72,2.0,1.0,3.0,1.0,0.0,0.0,0.0,0.0,23.06,59.46689318053584,0.0
"1,3,5-tris(oxiran-2-ylmethyl)-1,3,5-triazinane-2,4,6-trione",O=C1N(CC2CO2)C(=O)N(CC3CO3)C(=O)N1CC4CO4,-1.495423095,G3,-2.631899999999997,68.44200000000002,9.0,0.0,9.0,6.0,1.0,3.0,3.0,4.0,103.59,117.81244907975622,1.8082493753899795
"2,4,6-tris[(dimethylamino)methyl]phenol",CN(C)Cc1cc(CN(C)C)c(O)c(CN(C)C)c1,0.5055163708,G1,1.577,80.27980000000005,4.0,1.0,4.0,6.0,1.0,0.0,0.0,1.0,29.950000000000003,116.78961691187256,3.1300208753763616
cesium formate,[Cs+].OC=O,0.6746872011,G1,-3.2952000000000004,8.6928,1.0,1.0,3.0,0.0,0.0,0.0,0.0,0.0,37.3,82.99979602506494,0.0
2-[2-(carboxymethoxy)ethoxy]acetic acid,OC(=O)COCCOCC(O)=O,0.6709250275,G1,-0.8111999999999999,36.9096,4.0,2.0,6.0,7.0,0.0,0.0,0.0,0.0,93.06,68.70256376330589,3.0073056362946597
N-(methoxymethyl)-2-methylprop-2-enamide,COCNC(=O)C(C)=C,0.7919653131000001,G1,0.2826,34.8327,2.0,1.0,3.0,3.0,0.0,0.0,0.0,0.0,38.33,54.69928808078701,3.3940489484742136
pentasodium 2-[bis({2-[bis(carboxylatomethyl)amino]ethyl})amino]acetate,[Na+].[Na+].[Na+].[Na+].[Na+].[O-]C(=O)CN(CCN(CC([O-])=O)CC([O-])=O)CCN(CC([O-])=O)CC([O-])=O,0.2012984367,G1,-24.33809999999997,74.35500000000003,13.0,0.0,18.0,16.0,0.0,0.0,0.0,0.0,210.37,295.60877690035414,-3.379999026365288e-07
"N-butyl-2,2,6,6-tetramethylpiperidin-4-amine",CCCCNC1CC(C)(C)NC(C)(C)C1,0.5746150304,G1,2.6853000000000007,67.22640000000006,2.0,2.0,2.0,4.0,0.0,1.0,1.0,1.0,24.06,95.2124496142757,2.442895019767456
hydrogen sulfate; tetrakis(hydroxymethyl)phosphanium; urea,NC(N)=O.OC[P+](CO)(CO)CO.O[S]([O-])(=O)=O,0.4036921179,G1,-3.1684,61.36000000000002,8.0,7.0,13.0,4.0,0.0,0.0,0.0,0.0,227.46,103.94537439399144,-2.116300338144638e-07
disodium disilicate,[Na+].[Na+].[O-][Si](=O)O[Si]([O-])=O,0.5846760173,G1,-9.4376,13.966,5.0,0.0,9.0,2.0,0.0,0.0,0.0,0.0,89.49000000000001,98.8053381327611,-1.7999999002500056e-07
tert-butyl hydroperoxide,CC(C)(C)OO,0.8846472262999999,G1,1.2745,23.466799999999992,2.0,1.0,2.0,0.0,0.0,0.0,0.0,0.0,29.46,37.671151668460574,3.1684898726705697
"sodium 4-{4-[(E)-2-(3-chloro-2-hydroxy-5-nitrophenyl)diazen-1-yl]-3-methyl-5-oxo-4,5-dihydro-1H-pyrazol-1-yl}benzene-1-sulfonate",[Na+].CC1=NN(C(=O)C1N\N=C\2C=C(C=C(Cl)C2=O)[N+]([O-])=O)c3ccc(cc3)[S]([O-])(=O)=O,-0.8385771725,G1,-2.502599999999997,103.37929999999996,10.0,1.0,15.0,5.0,1.0,0.0,2.0,3.0,174.47,202.0518905402593,3.413328363207461e-06
Cobaltous nitrate hexahydrate,O.O.O.O.O.O.[Co++].[O-][N+]([O-])=O.[O-][N](=O)=O,0.3618761934,G3,-5.428899999999997,42.40560000000003,6.0,0.0,15.0,0.0,0.0,0.0,0.0,0.0,321.4,91.38719006725856,-4.675324661157025e-09
tetrakis(hydroxymethyl)phosphanium; urea; chloride,[Cl-].NC(N)=O.OC[P+](CO)(CO)CO,0.4251118411999999,G1,-5.168999999999996,49.03400000000002,5.0,6.0,9.0,4.0,0.0,0.0,0.0,0.0,150.03,88.460762854717,-2.089999937300002e-07
"N,N,N',N'-tetrakis(2-hydroxypropyl)hexanediamide",CC(O)CN(CC(C)O)C(=O)CCCCC(=O)N(CC(C)O)CC(C)O,0.2109933627,G1,-0.2727999999999981,98.35120000000003,6.0,4.0,8.0,13.0,0.0,0.0,0.0,0.0,121.54,155.96291352185025,4.378610288305927
3-sulfanylpropanoic acid,OC(=O)CCS,0.754917543,G1,0.3909000000000001,26.105799999999995,2.0,2.0,3.0,2.0,0.0,0.0,0.0,0.0,37.3,41.579957772264265,2.8312571099313644
methyl L-serinate hydrochloride,[H+].[Cl-].COC(=O)C(N)CO,0.5774207675,G1,-4.404499999999998,28.1892,4.0,2.0,5.0,2.0,0.0,0.0,0.0,0.0,72.55,60.88116077182369,-2.449999819750014e-07
"(3S)-3-hydroxy-4,4-dimethyloxolan-2-one",CC1(C)COC(=O)C1O,0.6515307225,G5,-0.0696999999999999,30.746799999999983,3.0,1.0,3.0,0.0,0.0,1.0,1.0,1.0,46.53,53.62743152803001,2.7330923026721177
2-({2-[2-(dimethylamino)ethoxy]ethyl}(methyl)amino)ethan-1-ol,CN(C)CCOCCN(C)CCO,0.4764657364,G1,-0.5112999999999988,53.95580000000004,4.0,1.0,4.0,8.0,0.0,0.0,0.0,0.0,35.94,81.08623426511205,3.0634587717725403
aminoformonitrile,NC#N,1.1245149893000002,G5,-0.57382,9.8004,2.0,1.0,2.0,0.0,0.0,0.0,0.0,0.0,49.81,18.47172140631098,2.475534205527556
1-(2-aminoethyl)imidazolidin-2-one,NCCN1CCNC1=O,0.6335459397,G1,-1.0296999999999998,34.02609999999999,2.0,2.0,4.0,2.0,0.0,1.0,1.0,1.0,58.36,54.004296982754646,2.309791814716797
"benzyldimethyl(2-{2-[4-(2,4,4-trimethylpentan-2-yl)phenoxy]ethoxy}ethyl)azanium chloride",[Cl-].CC(C)(C)CC(C)(C)c1ccc(OCCOCC[N+](C)(C)Cc2ccccc2)cc1,0.0729096485,G3,3.0764000000000022,126.97540000000006,2.0,0.0,4.0,11.0,2.0,0.0,0.0,2.0,18.46,196.312617909872,4.804990568269088e-06
"(2R)-2,4-dihydroxy-N-(3-hydroxypropyl)-3,3-dimethylbutanamide",CC(C)(CO)[C@@H](O)C(=O)NCCCO,0.3944261529,G3,-1.1355999999999995,51.58610000000003,4.0,4.0,5.0,6.0,0.0,0.0,0.0,0.0,89.79,83.75287348324227,3.9888789246223633
"(3-{3,5-bis[3-(dimethylamino)propyl]-1,3,5-triazinan-1-yl}propyl)dimethylamine",CN(C)CCCN1CN(CCCN(C)C)CN(CCCN(C)C)C1,0.1642130702,G1,0.6336000000000044,104.23200000000008,6.0,0.0,6.0,12.0,0.0,1.0,1.0,1.0,19.440000000000005,150.49643784026293,2.4112643666583
Chromium acetate,[Cr].CC([O-])=O,0.6534905512,G5,-1.2463000000000002,10.681,2.0,0.0,3.0,0.0,0.0,0.0,0.0,0.0,40.13,40.93346198645263,0.0
1-[bis(2-hydroxypropyl)amino]propan-2-ol,CC(O)CN(CC(C)O)CC(C)O,0.4173208759,G3,-0.5691999999999999,51.482400000000034,4.0,3.0,4.0,6.0,0.0,0.0,0.0,0.0,63.93000000000001,79.80132286979381,3.874273131289944
"2,6-diaminohexanoic acid hydrochloride",[Cl-].NCCCC[C@H](N)C(O)=O.[H+],0.4373479501,G1,-3.3561999999999976,39.6286,3.0,3.0,5.0,5.0,0.0,0.0,0.0,0.0,89.34,73.83739046812275,-4.0499994723750725e-07
2-acrylamido-2-methylpropanesulphonic acid,[Na+].CC(C)(C[S]([O-])(=O)=O)NC(=O)C=C,0.3386928662,G1,-3.383599999999997,46.982900000000015,4.0,1.0,7.0,4.0,0.0,0.0,0.0,0.0,86.29999999999998,105.99272059842932,0.0
"3,5-dimethyl-1,2-dioxolane-3,5-diol",CC1(O)CC(C)(O)OO1,0.5714408419,G1,-0.2447,28.03459999999999,4.0,2.0,4.0,0.0,0.0,1.0,1.0,1.0,58.92,52.93804161103083,2.575226255495745
"3,6,9,12-tetraazatetradecane-1,14-diamine",NCCNCCNCCNCCNCCN,0.3327787326,G1,-2.7377999999999965,69.58760000000002,6.0,6.0,6.0,13.0,0.0,0.0,0.0,0.0,100.16,98.90296018585664,2.828262412638549
"N,N-dimethyl-N'-(2,2,6,6-tetramethylpiperidin-4-yl)propane-1,3-diamine",CN(C)CCCNC1CC(C)(C)NC(C)(C)C1,0.316191362,G1,1.8369,75.48940000000006,3.0,2.0,3.0,5.0,0.0,1.0,1.0,1.0,27.3,107.33722539887567,2.329853601948085
nickel bis(dihydrogen phosphate),[Ni++].O[P](O)([O-])=O.O[P](O)([O-])=O,0.2964249182,G1,-3.1237000000000004,24.0882,4.0,4.0,11.0,0.0,0.0,0.0,0.0,0.0,161.18,71.2915165488005,-1.0666666581111113e-07
"sodium 1,4-bis(2-methylpropoxy)-1,4-dioxobutane-2-sulfonate",[Na+].CC(C)COC(=O)CC(C(=O)OCC(C)C)[S]([O-])(=O)=O,0.1773743212,G1,-2.307299999999996,69.69620000000005,7.0,0.0,9.0,8.0,0.0,0.0,0.0,0.0,109.8,147.34578457804614,0.0
"sodium 1,4-bis[(4-methylpentan-2-yl)oxy]-1,4-dioxobutane-2-sulfonate",[Na+].CC(C)CC(C)OC(=O)CC(C(=O)OC(C)CC(C)C)[S]([O-])(=O)=O,0.1096259345,G1,-0.7500999999999969,88.12020000000007,7.0,0.0,9.0,10.0,0.0,0.0,0.0,0.0,109.8,172.80555303563258,0.0
sodium 2-ethylhexyl sulfate,[Na+].CCCCC(CC)CO[S]([O-])(=O)=O,0.3329637961,G1,-1.3163999999999985,48.95520000000004,4.0,0.0,6.0,7.0,0.0,0.0,0.0,0.0,66.43,108.65843056692329,0.0
sodium propanoate,[Na+].CCC([O-])=O,0.716422901,G1,-3.8497,15.298000000000002,2.0,0.0,3.0,1.0,0.0,0.0,0.0,0.0,40.13,58.83829073157449,0.0
"3-(aminomethyl)-3,5,5-trimethylcyclohexan-1-amine",Cc1ccc(cc1)[S](O)(=O)=O.CC2(C)CC(N)CC(C)(CN)C2,0.1572981869,G1,2.7305200000000003,93.76240000000006,4.0,3.0,6.0,2.0,1.0,1.0,1.0,2.0,106.41,139.75418378192572,2.308712073123193e-07
sodium prop-2-enoate,[Na+].[O-]C(=O)C=C,0.7150841112,G5,-4.073699999999999,15.204,2.0,0.0,3.0,1.0,0.0,0.0,0.0,0.0,40.13,58.14868769939023,0.0
"2-hydroxy-N,N,N-trimethylethanaminium hydroxide",[OH-].C[N+](C)(C)CCO,0.6032053211,G1,-0.4919000000000001,31.92099999999998,2.0,1.0,3.0,2.0,0.0,0.0,0.0,0.0,50.23,50.443811822825054,0.0
"2,2,4-trimethylhexane-1,6-diamine",CC(CCN)CC(C)(C)CN,0.4781562172999999,G1,1.3462999999999998,50.28780000000002,2.0,2.0,2.0,5.0,0.0,0.0,0.0,0.0,52.04,70.33856933702782,3.636286368364619
sodium octyl sulfate,[Na+].CCCCCCCCO[S]([O-])(=O)=O,0.2872063056,G1,-1.1722999999999988,49.02520000000004,4.0,0.0,6.0,8.0,0.0,0.0,0.0,0.0,66.43,108.65843056692329,0.0
"N-ethyl-4'-{[4-(ethylamino)-2-methylphenyl][4-(ethylimino)-3-methylcyclohexa-2,5-dien-1-ylidene]methyl}-3-methylbiphenyl-2-amine acetate",CCNc1ccc(cc1C)C(c2ccc(NCC)c(C)c2)=C3C=CC(=NCC)C(=C3)C.CC(O)=O,-1.0232212865,G1,7.036840000000007,150.89019999999985,4.0,3.0,5.0,7.0,2.0,0.0,1.0,3.0,73.72,209.9394489934632,1.0016125800884306e-06
(3-dodecanamidopropyl)trimethylazanium methyl sulfate,CCCCCCCCCCCC(=O)NCCC[N+](C)(C)C.CO[S]([O-])(=O)=O,-0.011381165,G1,3.212800000000001,109.07630000000007,5.0,1.0,8.0,15.0,0.0,0.0,0.0,0.0,95.53,166.94641479655382,0.0
sodium 2-butyloctyl sulfate,[Na+].CCCCCCC(CCCC)CO[S]([O-])(=O)=O,0.142087324,G1,0.244,67.42320000000005,4.0,0.0,6.0,11.0,0.0,0.0,0.0,0.0,66.43,134.11819902450975,0.0
lithium dodecyl sulfate,[Li+].CCCCCCCCCCCCO[S]([O-])(=O)=O,0.10896299,G1,0.3880999999999996,67.49320000000006,4.0,0.0,6.0,12.0,0.0,0.0,0.0,0.0,66.43,124.0023649277302,0.0
sodium decyl sulfate,[Na+].CCCCCCCCCCO[S]([O-])(=O)=O,0.1029880533,G1,-0.3920999999999996,58.25920000000005,4.0,0.0,6.0,10.0,0.0,0.0,0.0,0.0,66.43,121.38831479571652,0.0
"potassium [[N,N'-ethylenebis[N-(carboxymethyl)glycinato]](4-)-N,N',O,O',ON,ON']ferrate(1-)",[K+].[Fe+3].[O-]C(=O)CN(CCN(CC([O-])=O)CC([O-])=O)CC([O-])=O,-0.0920128034,G1,-10.408500000000007,52.90800000000002,10.0,0.0,12.0,11.0,0.0,0.0,0.0,0.0,167.0,178.88460577434824,-1.8049992523503188e-06
2-[(9Z)-N-methyloctadec-9-enamido]acetic acid; 2-[bis(2-hydroxyethyl)amino]ethan-1-ol,CCCCCCCC\C=C/CCCCCCCC(=O)N(C)CC(O)=O.OCCN(CCO)CCO,0.7757804054999999,G1,3.8322000000000025,142.42219999999998,6.0,4.0,8.0,23.0,0.0,0.0,0.0,0.0,121.54,213.56362067276467,0.0
2-hydroxyacetic acid,OCC(O)=O,0.5960163257,G1,-0.9367,14.7216,2.0,2.0,3.0,1.0,0.0,0.0,0.0,0.0,57.53,28.854182746661948,2.847378923087672
"N,N-dimethylimidodicarbonimidic diamide hydrochloride",[H+].[Cl-].CN(C)C(=N)N=C(N)N,0.257987497,G1,-4.127329999999999,38.33549999999999,1.0,3.0,6.0,0.0,0.0,0.0,0.0,0.0,91.49,67.49225754241803,-3.199999731000024e-07
"2,2',2''-nitrilotriacetonitrile",N#CCN(CC#N)CC#N,-1.6475578342,G1,-0.1408599999999999,33.279,4.0,0.0,4.0,3.0,0.0,0.0,0.0,0.0,74.61,59.501534314422095,3.6823564491504928
potassium (Z)-N-methyl-N-(1-oxo-9-octadecenyl)aminoacetate,[K+].CCCCCCCC\C=C/CCCCCCCC(=O)N(C)CC([O-])=O,-0.1215920041,G1,1.2362000000000004,102.09600000000007,3.0,0.0,5.0,17.0,0.0,0.0,0.0,0.0,60.440000000000005,203.14816660142696,0.0
propan-2-yl acetate,CC(C)OC(C)=O,-0.5467680909,G5,0.9579,26.901999999999987,2.0,0.0,2.0,1.0,0.0,0.0,0.0,0.0,26.3,43.47408681496663,3.126006652390634
2-[(acetyloxy)methyl]prop-2-en-1-yl acetate,CC(=O)OCC(=C)COC(C)=O,-0.7796166704,G1,0.6688000000000001,42.40600000000002,4.0,0.0,4.0,4.0,0.0,0.0,0.0,0.0,52.6,71.15437745552285,3.467235170058121
"O,O-bis(2-methylphenyl) hydrogen dithiophosphate",Cc1ccccc1O[P](S)(=S)Oc2ccccc2C,-1.0605299646,G1,4.915540000000004,86.88500000000003,3.0,1.0,5.0,4.0,2.0,0.0,0.0,2.0,18.46,123.64238114497395,2.1799394443598064
2-[3-(4-propylheptyl)morpholin-4-yl]ethan-1-ol hydrochloride,CCCC(CCC)CCCC1COCCN1CCO,0.9642581623,G1,3.0662000000000016,80.42280000000007,3.0,1.0,3.0,10.0,0.0,1.0,1.0,1.0,32.7,118.87516424215576,2.241838945607729
"Ethanesulfonic acid, 2-(methylamino)-, N-coco acyl derivs., sodium salts",[Na+].CNCC[S]([O-])(=O)=O,0.1906881396,G4,-4.244999999999997,28.490899999999996,4.0,1.0,6.0,3.0,0.0,0.0,0.0,0.0,69.22999999999999,77.06103307298336,0.0
aluminium trititanium dodecachloride,[Al+3].[Cl-].[Cl-].[Cl-].[Cl-].[Cl-].[Cl-].[Cl-].[Ti+4],-0.1112894041,G1,-21.3553,5.754,0.0,0.0,9.0,0.0,0.0,0.0,0.0,0.0,0.0,124.31977713425836,-0.0
"1,4:3,6-dianhydro-D-glucitol",O[C@@H]1CO[C@@H]2[C@@H](O)CO[C@H]12,1.1774501829,G1,-1.4942000000000004,31.493599999999983,4.0,2.0,4.0,0.0,0.0,2.0,2.0,2.0,58.92,58.3678572561599,2.0917705580984776