Name,SMILES,Solubility,Group,MolLogP,MolMR,NumHAcceptors,NumHDonors,NumHeteroatoms,NumRotatableBonds,NumAromaticRings,NumSaturatedRings,NumAliphaticRings,RingCount,TPSA,LabuteASA,BalabanJ
"hexane-1,6-diamine",NCCCCCCN,0.7389034055,G3,0.4642,36.57679999999999,2.0,2.0,2.0,5.0,0.0,0.0,0.0,0.0,52.04,51.243742993838026,2.53006045688352
sodium hydroxymethanesulfinate,[Na+].OC[S]([O-])=O,0.731520726,G3,-4.180699999999999,16.0056,3.0,1.0,5.0,1.0,0.0,0.0,0.0,0.0,60.36,60.32437623456747,0.0
1H-imidazole,[nH]1ccnc1,0.9683905422,G3,0.4096999999999999,18.587699999999995,1.0,1.0,2.0,0.0,1.0,0.0,0.0,1.0,28.68,29.860211521457774,3.1250000000000004
sodium hydrogen (2S)-2-aminobutanedioate,[Na+].N[C@@H](CC(O)=O)C([O-])=O,0.6099273323,G1,-5.457699999999998,25.2352,4.0,2.0,6.0,3.0,0.0,0.0,0.0,0.0,103.45,79.4988793952236,0.0
manganese bis(dihydrogen phosphate),[Mn++].[O-][P]([O-])([O-])=O.[O-][P]([O-])([O-])=O,0.4103907799,G1,-5.6517,15.213,8.0,0.0,11.0,0.0,0.0,0.0,0.0,0.0,172.5,71.84038420130916,-1.0666666581111113e-07
"1,1-dimethylpropyl hydroperoxide",CCC(C)(C)OO,-0.2165945745,G1,1.6646,28.083799999999982,2.0,1.0,2.0,2.0,0.0,0.0,0.0,0.0,29.46,44.03609378285718,3.360435142696057
2-phenylethan-1-amine,NCCc1ccccc1,-0.2823811698,G1,1.1878,39.200400000000016,1.0,1.0,1.0,2.0,1.0,0.0,0.0,1.0,26.02,55.50117804530289,2.61489994009295
"4-hydroxy-2,2,6,6-tetramethylpiperidinoxyl",CC1(C)CC(O)CC(C)(C)N1[O],0.5627035438,G1,1.3458,45.92430000000002,2.0,1.0,3.0,0.0,0.0,1.0,1.0,1.0,43.37,73.95529646354655,2.83552189030206
sodium 4(or 5)-methyl-1H-benzotriazolide,[Na+].Cc1cccc2n[n-]nc12,0.6051674279,G1,-2.100579999999998,37.595000000000006,2.0,0.0,4.0,0.0,2.0,0.0,0.0,2.0,39.88,86.4767729080575,6.049999156666785e-07
"oxolane-2,5-dione",O=C1CCC(=O)O1,-0.2016662739,G1,-0.15,20.332999999999995,3.0,0.0,3.0,0.0,0.0,1.0,1.0,1.0,43.370000000000005,40.26483564708455,2.5537050272065858
calcium dipropanoate,[Ca++].CCC([O-])=O.CCC([O-])=O,-0.4769347221,G3,-2.0881999999999987,36.35,4.0,0.0,5.0,2.0,0.0,0.0,0.0,0.0,80.25999999999999,95.59707245304556,-1.0666666563333336e-07
"2,2-bis(hydroxymethyl)propane-1,3-diol",OCC(CO)(CO)CO,-0.3416163866,G5,-2.058,30.77619999999999,4.0,4.0,4.0,4.0,0.0,0.0,0.0,0.0,80.92,53.37595449420002,3.824684203207495
2-methylpropanoic anhydride,CC(C)C(=O)OC(=O)C(C)C,0.5917902317,G1,1.3682,40.775000000000006,3.0,0.0,3.0,2.0,0.0,0.0,0.0,0.0,43.370000000000005,66.73043525820019,3.8624101150224392
sodium (2S)-5-oxopyrrolidine-2-carboxylate,[Na+].[O-]C(=O)[C@@H]1CCC(=O)N1,0.6082046329,G1,-4.981099999999998,26.171699999999998,3.0,1.0,5.0,1.0,0.0,1.0,1.0,1.0,69.22999999999999,80.2737280904903,8.099998654500228e-07
disodium phosphonate,[Na+].[Na+].[O-][P](=O)=O,0.6893014740000001,G1,-6.5574,8.293,3.0,0.0,6.0,0.0,0.0,0.0,0.0,0.0,57.2,79.99173642950187,-4.4999999400000016e-08
"2,2,4,4-tetramethylcyclobutane-1,3-diol",CC1(C)C(O)C(C)(C)C1O,-0.3736775878,G1,0.7742,39.5756,2.0,2.0,2.0,0.0,0.0,1.0,1.0,1.0,40.46,61.87648217946859,2.7809310892394867
"tripotassium 2-hydroxypropane-1,2,3-tricarboxylate",[K+].[K+].[K+].OC(CC([O-])=O)(CC([O-])=O)C([O-])=O,0.2961937852,G3,-14.240600000000002,29.204799999999995,7.0,1.0,10.0,5.0,0.0,0.0,0.0,0.0,140.62,218.9931569948156,-2.399999741500029e-07
"1,4-bis({3-[2-(2-hydroxyethoxy)ethoxy]propyl}amino)-9,10-dihydroanthracene-9,10-dione",OCCOCCOCCCNc1ccc(NCCCOCCOCCO)c2C(=O)c3ccccc3C(=O)c12,0.0571886956,G3,2.116999999999999,143.4099999999999,10.0,4.0,10.0,20.0,2.0,0.0,1.0,3.0,135.58,222.78715699210068,1.5956925264360755
acetic acid,CC(O)=O,1.0017178079,G3,0.0908999999999999,13.3098,1.0,1.0,2.0,0.0,0.0,0.0,0.0,0.0,37.3,24.05994899446593,2.8030394876740514
2-oxopentanedioic acid,OC(=O)CCC(=O)C(O)=O,0.6148800726,G1,-0.4950999999999999,29.512599999999992,3.0,2.0,5.0,4.0,0.0,0.0,0.0,0.0,91.67,56.272053289939294,3.604156821528498
disodium 3-[(3-sulfonatopropyl)disulfanyl]propane-1-sulfonate,[Na+].[Na+].[O-][S](=O)(=O)CCCSSCCC[S]([O-])(=O)=O,0.2286526355,G1,-5.753599999999996,63.27840000000003,8.0,0.0,12.0,9.0,0.0,0.0,0.0,0.0,114.39999999999998,160.2942150023979,-1.1249996070001402e-06
2-methylprop-2-enal,CC(=C)C=O,-0.0675110058,G5,0.7614000000000001,20.877999999999997,1.0,0.0,1.0,1.0,0.0,0.0,0.0,0.0,17.07,31.30599643887889,3.204805417886435
2-methylpropanal,CC(C)C=O,-0.0798261768,G3,0.8412999999999999,20.901999999999997,1.0,0.0,1.0,1.0,0.0,0.0,0.0,0.0,17.07,31.995599471063137,2.825749368745867
"O,O-diisopropyl hydrogen dithiophosphate",CC(C)O[P](S)(=S)OC(C)C,-0.5528547078,G1,2.990700000000001,55.71300000000004,3.0,1.0,5.0,4.0,0.0,0.0,0.0,0.0,18.46,78.9879611904323,3.907836095239563
"N,2,3-trimethyl-2-(propan-2-yl)butanamide",CNC(=O)C(C)(C(C)C)C(C)C,-1.3948677058,G1,2.0507,51.849700000000034,1.0,1.0,2.0,3.0,0.0,0.0,0.0,0.0,29.1,75.7351143410508,4.7400996413297465
carbonyl dichloride,ClC(Cl)=O,-1.1608458422,G1,1.584,17.102,1.0,0.0,3.0,0.0,0.0,0.0,0.0,0.0,17.07,33.50730558163666,2.8030394876740514
2-[1-(carboxymethyl)cyclohexyl]acetic acid,OC(=O)CC1(CCCCC1)CC(O)=O,-1.4722340504,G5,1.8863,50.02360000000003,2.0,2.0,4.0,4.0,0.0,1.0,1.0,1.0,74.6,82.92941060834939,2.6568768463463908
strontium,[Sr],-1.1139433523,G1,-0.3808,5.754,0.0,0.0,1.0,0.0,0.0,0.0,0.0,0.0,0.0,44.75647354469592,0.0
(2S)-5-amino-2-[(2-aminoacetyl)amino]-5-oxopentanoic acid,NC(=O)CC[C@H](NC(=O)C[NH3+])C([O-])=O,-0.194310278,G1,-4.271499999999999,43.12120000000001,4.0,3.0,7.0,6.0,0.0,0.0,0.0,0.0,139.96,80.43734734416999,4.089939314856037
(methylsulfanyl)ethane,CCSC,-1.0569732819,G1,1.3693,24.05599999999999,1.0,0.0,1.0,1.0,0.0,0.0,0.0,0.0,0.0,31.592245281988006,1.9747448713915892
benzaldehyde,O=Cc1ccccc1,-1.2095723109,G5,1.4991,31.829499999999992,1.0,0.0,1.0,1.0,1.0,0.0,0.0,1.0,17.07,47.95786733393734,2.991046914684621
2-hydroperoxy-2-(2-hydroperoxybutan-2-ylperoxy)butane,CCC(C)(OO)OOC(C)(CC)OO,-1.5077732457,G1,2.1662,46.98960000000001,6.0,2.0,6.0,7.0,0.0,0.0,0.0,0.0,77.38000000000001,83.12438019824026,4.13703891526259
2-(methylamino)-1-phenylpropan-1-ol,CN[C@@H](C)[C@@H](O)c1ccccc1,-1.4051913165,G1,1.3279,49.92350000000003,2.0,2.0,2.0,3.0,1.0,0.0,0.0,1.0,32.26,73.23526751288745,2.7110407232330616
ethyl 2-methylpropanoate,CCOC(=O)C(C)C,-1.2554968887,G1,1.2055,31.470999999999982,2.0,0.0,2.0,2.0,0.0,0.0,0.0,0.0,26.3,49.83902892936323,3.329150037184473
sulfanylidenestrontium,S=[Sr],0.0036602887,G1,0.2673999999999999,13.345,1.0,0.0,2.0,0.0,0.0,0.0,0.0,0.0,0.0,44.55367974051606,2.0
"1,3-dihydro-2-benzofuran-1,3-dione",O=C1OC(=O)c2ccccc12,-1.3644249332,G5,0.9972,36.18800000000001,3.0,0.0,3.0,0.0,1.0,0.0,1.0,2.0,43.370000000000005,62.59204562435536,2.6946772551637395
"(E)-1,2-dichloroethene",Cl\C=C\Cl,-1.1871803856999998,G3,1.9352,20.846,0.0,0.0,2.0,0.0,0.0,0.0,0.0,0.0,0.0,35.02112256380526,2.549193338482967
quinoline,c1ccc2ncccc2c1,-1.325093551,G3,2.2348,41.743000000000016,1.0,0.0,1.0,0.0,2.0,0.0,0.0,2.0,12.89,59.33271563217868,2.888051601657992
1-phenylethan-1-one; 2-phenylpropan-2-ol; phenol,CC(=O)c1ccccc1.CC(C)(O)c2ccccc2.Oc3ccccc3,-1.7593061432,G1,5.195400000000007,106.24010000000004,3.0,2.0,3.0,2.0,3.0,0.0,0.0,3.0,57.53,155.1319540151023,1.9796826460488242e-07
1-ethylpiperidine,CCN1CCCCC1,-1.2757105223,G1,1.4922,35.96499999999999,1.0,0.0,1.0,1.0,0.0,1.0,1.0,1.0,3.24,51.68290623088334,2.125016255414672
2-amino-5-methylbenzene-1-sulfonic acid,Cc1ccc(N)c(c1)[S](O)(=O)=O,-1.4942009905000002,G3,0.82392,45.40600000000001,3.0,2.0,5.0,1.0,1.0,0.0,0.0,1.0,80.39,70.7648719409469,3.4344939089006497
"bis(2-phenyl-4,5-dihydro-1H-imidazole); benzene-1,2,4,5-tetracarboxylic acid",OC(=O)c1cc(C(O)=O)c(cc1C(O)=O)C(O)=O.C2CN=C(N2)c3ccccc3.C4CN=C(N4)c5ccccc5,-1.9594675236,G1,2.5522,145.97659999999982,8.0,6.0,12.0,6.0,3.0,0.0,2.0,5.0,197.98,227.9084054234865,1.7280564021500238e-07
imidazolidin-2-one,O=C1NCCN1,0.8402733738,G5,-0.7008000000000001,21.401399999999995,1.0,2.0,3.0,0.0,0.0,1.0,1.0,1.0,41.13,35.72455057035339,2.3673518510178746
iron(+3) cation; oxygen(-2) anion,[O--].[O--].[O--].[Fe+3].[Fe+3],-3.7261483073,G1,-0.3614,2.0595,0.0,0.0,5.0,0.0,0.0,0.0,0.0,0.0,85.5,51.00197858958836,-0.0
bis(hydroxyazanium) sulfate,[NH3+]O.[NH3+]O.[O-][S]([O-])(=O)=O,0.553426318,G1,-4.103,19.82380000000001,6.0,4.0,9.0,0.0,0.0,0.0,0.0,0.0,176.0,51.19417075615947,-7.714285649961735e-08
dichlorocobalt,[Cl-].[Cl-].[Co++],0.654418336,G1,-5.9945,0.0,0.0,0.0,3.0,0.0,0.0,0.0,0.0,0.0,0.0,41.99469774646511,-0.0
potassium pentahydrogen diphosphate,[K+].O[P](O)(O)=O,0.6286564425,G1,-3.9246,14.2629,1.0,3.0,6.0,0.0,0.0,0.0,0.0,0.0,77.75999999999999,77.22918553985866,0.0
potassium (2S)-4-carboxy-2-tetradecanamidobutanoate,[K+].CCCCCCCCCCCCCC(=O)N[C@@H](CCC(O)=O)C([O-])=O,-0.8308225768999999,G1,-0.2089999999999968,94.88550000000006,4.0,2.0,7.0,17.0,0.0,0.0,0.0,0.0,106.53,199.85366977046243,0.0
"1,3-bis(acetyloxy)propan-2-yl acetate",CC(=O)OCC(COC(C)=O)OC(C)=O,-0.5754367043,G5,0.0442999999999997,48.82000000000003,6.0,0.0,6.0,5.0,0.0,0.0,0.0,0.0,78.9,87.48398993165436,3.9922055468289934
"2,2-dimethyloxirane",CC1(C)CO1,-0.0945494336,G1,0.7952,20.030999999999995,1.0,0.0,1.0,0.0,0.0,1.0,1.0,1.0,12.53,31.941791446997023,2.3821985753493924
hexyl D-glucoside,CCCCCCOC1O[C@H](CO)[C@@H](O)[C@H](O)[C@H]1O,-0.6586987459,G1,-0.6168000000000002,63.86120000000006,6.0,4.0,6.0,7.0,0.0,1.0,1.0,1.0,99.38,107.1518086004608,2.345649402235044
"2-hydroxypropane-1,2,3-tricarboxylic acid",OC(=O)CC(O)(CC(O)=O)C(O)=O,0.4768431239,G5,-1.2485,37.09119999999999,4.0,4.0,7.0,5.0,0.0,0.0,0.0,0.0,132.13000000000002,72.22546290872793,4.619312134964085
"1H-1,2,4-triazol-3-amine",Nc1[nH]ncn1,0.8326929954000001,G5,-0.6131000000000004,20.795100000000005,3.0,2.0,4.0,0.0,1.0,0.0,0.0,1.0,67.59,34.388203767821736,3.049648321313926
"tris(2-hydroxyethyl)-1,3,5-triazinane-2,4,6-trione",OCCN1C(=O)N(CCO)C(=O)N(CCO)C1=O,0.3403663284,G3,-3.851399999999997,60.47940000000002,9.0,3.0,9.0,6.0,1.0,0.0,0.0,1.0,126.69000000000004,100.77718176522148,3.5911305736027184
"sodium dihydrogen 2-hydroxypropane-1,2,3-tricarboxylate",[Na+].OC(=O)CC(O)(CC(O)=O)C([O-])=O,0.4252480461999999,G3,-5.579199999999998,34.462399999999995,5.0,3.0,8.0,5.0,0.0,0.0,0.0,0.0,134.96,100.63886253143993,0.0
xylose,OC1COC(O)C(O)C1O,0.5778808511,G5,-2.5823000000000005,29.979199999999988,5.0,4.0,5.0,0.0,0.0,1.0,1.0,1.0,90.15,57.48366857017767,2.515835979311492
"2,4-dihydroxy-N-(3-hydroxypropyl)-3,3-dimethylbutanamide",CC(C)(CO)C(O)C(=O)NCCCO,0.4376764540999999,G1,-1.1355999999999995,51.58610000000003,4.0,4.0,5.0,6.0,0.0,0.0,0.0,0.0,89.79,83.75287348324227,3.9888789246223633
"(2R,3R)-2,3-dihydroxybutanedioic acid",OC(C(O)C(O)=O)C(O)=O,0.5718478438,G4,-2.1226,27.2852,4.0,4.0,6.0,3.0,0.0,0.0,0.0,0.0,115.06,55.33405657989094,4.069511908932011
potassium hydrogen tartarate,[K+].O[C@H]([C@@H](O)C([O-])=O)C(O)=O,0.4736237943999999,G4,-6.453299999999998,24.656399999999994,5.0,3.0,7.0,3.0,0.0,0.0,0.0,0.0,117.89,104.25662127525356,0.0
dimethyl 2-acetylsuccinate,COC(=O)CC(C(C)=O)C(=O)OC,-0.5248348408,G1,-0.0723000000000002,42.820000000000014,5.0,0.0,5.0,4.0,0.0,0.0,0.0,0.0,69.67,76.00550258775085,4.351205679620966
palladium(2+) ion tetraamine dihydrogen carbonate,N.N.N.N.[Pd++].OC([O-])=O.OC([O-])=O,-0.7223996879000001,G1,-1.5791000000000004,36.13800000000001,8.0,6.0,11.0,0.0,0.0,0.0,0.0,0.0,260.72,87.93227124548496,-7.999999970370371e-09
2-{[4-(oxiran-2-ylmethoxy)butoxy]methyl}oxirane,C(CCOCC1CO1)COCC2CO2,-0.5608137387,G1,0.5973999999999999,50.35200000000005,4.0,0.0,4.0,9.0,0.0,2.0,2.0,2.0,43.52,84.46624866836808,1.2537346469992094
palladium(2+) dichloride,[Cl-].[Cl-].[Pd++],-0.5036976261,G2,-5.9945,0.0,0.0,0.0,3.0,0.0,0.0,0.0,0.0,0.0,0.0,45.453930550074055,-0.0
sodium hydrogensulphide,[Na+].[SH-],0.990088732,G1,-3.2661,8.76,1.0,0.0,2.0,0.0,0.0,0.0,0.0,0.0,0.0,42.97473183758309,0.0
beta-alanine,NCCC(O)=O,0.7865480445999999,G1,-0.5802,21.307199999999995,2.0,2.0,3.0,2.0,0.0,0.0,0.0,0.0,63.32,35.76478180587526,2.831257109931365
"6-methoxy-2-N-methylpyridine-2,3-diamine dihydrochloride",[H+].[H+].[Cl-].[Cl-].CNc1nc(OC)ccc1N,0.3819230911,G1,-5.0528999999999975,46.97210000000001,4.0,2.0,6.0,2.0,1.0,0.0,0.0,1.0,60.17,92.66001668345424,-1.512499921338546e-07
2-(sec-butylamino)ethanol,CCC(C)NCCO,0.6667009336999999,G1,0.3667999999999998,34.84149999999999,2.0,2.0,2.0,4.0,0.0,0.0,0.0,0.0,32.26,50.90805753561664,2.862065598305084
"bis(2-hydroxypropane-1,2,3-tricarboxylic acid); tris(piperazine)",OC(=O)CC(O)(CC(O)=O)C(O)=O.C1CNCCN1,0.2879414183,G1,-2.0692999999999966,62.830600000000025,6.0,6.0,9.0,5.0,0.0,1.0,1.0,1.0,156.19000000000003,108.78495573353048,4.430769031142762e-07
disodium disulphite,[Na+].[Na+].[O-][S](=O)O[S]([O-])=O,0.4533910824,G1,-7.4007999999999985,18.9246,5.0,0.0,9.0,2.0,0.0,0.0,0.0,0.0,89.49000000000001,101.48764480413963,-1.7999999002500056e-07
(E)-1-methyl-3-nitro-2-(oxolan-3-ylmethyl)guanidine,CN=C(NCC1CCOC1)N[N+]([O-])=O,-0.5694147178,G5,-0.6203999999999994,50.41780000000002,4.0,2.0,7.0,3.0,0.0,1.0,1.0,1.0,88.78999999999999,81.65477638599782,2.2301377160238998
ethyl 3-ethoxypropanoate,CCOCCC(=O)OCC,-0.4317085178,G3,0.9761,37.743,3.0,0.0,3.0,5.0,0.0,0.0,0.0,0.0,35.53,61.31751627326671,3.052375189045708
N-methylcyclohexanamine,CNC1CCCCC1,-0.3214680129,G1,1.5385,35.9327,1.0,1.0,1.0,1.0,0.0,1.0,1.0,1.0,12.03,51.47293474428801,2.125016255414672
methyl cyanoacetate,COC(=O)CC#N,-0.2636316857,G3,0.0730799999999999,22.24599999999999,3.0,0.0,3.0,1.0,0.0,0.0,0.0,0.0,50.09,41.50172438203874,3.2293841613651484
sodium 2-hydroxyethanesulfonate,[Na+].OCC[S]([O-])(=O)=O,0.5569422141,G1,-4.472099999999998,21.649999999999995,4.0,1.0,6.0,2.0,0.0,0.0,0.0,0.0,77.43,69.94046252717473,0.0
disodium (Z)-1-(octadec-9-enyl) 2-sulphonatosuccinate,[Na+].[Na+].CCCCCCCC/C=C/CCCCCCCCOC(=O)C(CC([O-])=O)[S]([O-])(=O)=O,-0.962426912,G1,-2.3710999999999918,113.52020000000007,7.0,0.0,10.0,20.0,0.0,0.0,0.0,0.0,123.63,238.39969083522905,-4.204994880418988e-06
ethyl 2-cyanoacetate,CCOC(=O)CC#N,-0.3276124069,G5,0.46318,26.86299999999999,3.0,0.0,3.0,2.0,0.0,0.0,0.0,0.0,50.09,47.866666496435336,3.225685725828485
"disodium hydrogen 2-hydroxypropane-1,2,3-tricarboxylate",[Na+].[Na+].OC(=O)C(O)(CC([O-])=O)CC([O-])=O,0.3454130072,G1,-9.9099,31.833599999999997,6.0,2.0,9.0,5.0,0.0,0.0,0.0,0.0,137.79,129.0522621541519,-7.199998836750194e-07
2-methylpentanedinitrile,CC(CCC#N)C#N,-0.3155007402,G1,1.44986,29.623999999999988,2.0,0.0,2.0,2.0,0.0,0.0,0.0,0.0,47.58,49.34912096275001,3.1795221167790872
1-butoxypropan-2-ol,CCCCOCC(C)O,-0.4052379668,G1,1.1839,37.4078,2.0,1.0,2.0,5.0,0.0,0.0,0.0,0.0,29.46,56.83668269591209,2.746690906857495
"2H-1,3-dioxol-2-one",O=C1OC=CO1,0.7770765429000001,G1,0.2327999999999999,17.243999999999996,3.0,0.0,3.0,0.0,1.0,0.0,0.0,1.0,43.35,33.19207130762661,3.4062460774815038
sodium [(2-methylpropoxy)methanethioyl]sulfanide,[Na+].CCC(C)OC(S)=S,0.4688768793,G1,-0.9797999999999998,42.422000000000025,2.0,1.0,4.0,2.0,0.0,0.0,0.0,0.0,9.23,89.2398112482414,0.0
3-(2-hydroxyethyl)-p-phenylenediammonium sulphate,CC(O)c1cc(N)ccc1N.[O-][S]([O-])(=O)=O,-0.6856367901,G1,-0.4336999999999997,56.375200000000014,7.0,3.0,8.0,1.0,1.0,0.0,0.0,1.0,152.53,93.27300728633548,3.845454411709097e-07
"4-methyl-1,3-oxazole-5-carbonitrile",Cc1ncoc1C#N,-0.324555733,G1,0.8547,25.955,3.0,0.0,3.0,0.0,1.0,0.0,0.0,1.0,49.82,46.56784427478224,3.154803644271227
cadmium dinitrate,[Cd++].O[N+]([O-])=O.O[N+]([O-])=O,0.3276361318,G1,-0.6979,17.561800000000005,4.0,2.0,9.0,0.0,0.0,0.0,0.0,0.0,126.74,68.46518758887134,-7.199999951999999e-08
sodium (ethoxymethanethioyl)sulfanide,[Na+].CCOC([S-])=S,0.5443381649,G3,-2.1412999999999998,31.588999999999995,3.0,0.0,4.0,1.0,0.0,0.0,0.0,0.0,9.23,76.50992701944818,0.0
"octane-1,8-diamine",[Cl-].[Cl-].[NH3+]CCCCCCCC[NH3+],0.3621421768,G3,-6.181200000000002,43.2122,0.0,2.0,4.0,7.0,0.0,0.0,0.0,0.0,55.28,88.2798137277301,-4.049999358750106e-07
"(3S,4aS,8aR)-N-tert-butyl-3,4,4a,5,6,7,8,8a-octahydro-1H-isoquinolin-2-ium-3-carboxamide",CC(C)(C)NC(=O)[C@@H]1C[C@@H]2CCCC[C@H]2C[NH2+]1,-2.1616093611,G1,1.0432000000000006,68.54110000000004,1.0,2.0,3.0,1.0,0.0,2.0,2.0,2.0,45.71,104.73308267518684,1.8863395038184607
"hexane-1,6-diol",OCCCCCCO,1.6264407184,G1,0.5313999999999999,32.63959999999998,2.0,2.0,2.0,5.0,0.0,0.0,0.0,0.0,40.46,50.15242910420461,2.53006045688352
2-(dimethylamino)ethyl 2-methylprop-2-enoate,CN(C)CCOC(=O)C(C)=C,0.5024815492,G3,0.6672999999999998,44.32700000000001,3.0,0.0,3.0,4.0,0.0,0.0,0.0,0.0,29.54,67.63914379617556,3.3972180387789788
"disodium 2,3-dihydroxybutanedioate",[Na+].[Na+].OC(C(O)C([O-])=O)C([O-])=O,0.4110563572999999,G1,-10.784,22.0276,6.0,2.0,8.0,3.0,0.0,0.0,0.0,0.0,120.72,112.16085582531488,-4.049999586000043e-07
triethyl phosphate,CCO[P](=O)(OCC)OCC,0.4385265234,G1,2.204,42.48450000000001,4.0,0.0,5.0,6.0,0.0,0.0,0.0,0.0,44.760000000000005,67.4542079628083,3.908471949775869
5-oxo-DL-proline,OC(=O)C1CCC(=O)N1,-0.4042589172,G3,-0.6504000000000001,28.800499999999992,2.0,2.0,4.0,1.0,0.0,1.0,1.0,1.0,66.39999999999999,51.86032846777834,2.4808965270174173
butyraldehyde,CCCC=O,-0.1590074228,G3,0.9854,20.971999999999998,1.0,0.0,1.0,2.0,0.0,0.0,0.0,0.0,17.07,31.99559947106314,2.4017152226171965
thiolane,C1CCSC1,-1.1819174748,G1,1.5134,26.55899999999999,1.0,0.0,1.0,0.0,0.0,1.0,1.0,1.0,0.0,36.95135624285539,2.083333333333333
phenyl acetate,CC(=O)Oc1ccccc1,-1.3735951622999998,G1,1.6119,37.75100000000001,2.0,0.0,2.0,1.0,1.0,0.0,0.0,1.0,26.3,59.43635467784082,2.6742416022951265
chloroethane,CCCl,-1.0507488092,G1,1.2451,16.394000000000002,0.0,0.0,1.0,0.0,0.0,0.0,0.0,0.0,0.0,25.407459369107837,1.6329931618554523
"4,6-dichloropyrimidine",Clc1cc(Cl)ncn1,-1.4172531143,G1,1.7833999999999997,32.05199999999999,2.0,0.0,4.0,0.0,1.0,0.0,0.0,1.0,25.78,56.47723153515334,3.077660437970554
"2,4-dimethylaniline",Cc1ccc(N)c(C)c1,-1.3352536727,G1,1.88564,40.32840000000001,1.0,1.0,1.0,0.0,1.0,0.0,0.0,1.0,26.02,55.501178045302886,3.171678030440916
2-chloroaniline,Nc1ccccc1Cl,-1.3575741458,G5,1.9222,35.86440000000001,1.0,1.0,2.0,0.0,1.0,0.0,0.0,1.0,26.02,53.07456004339135,3.134861511345448
phenyl diamidophosphate,N[P](N)(=O)Oc1ccccc1,-1.4876534031,G1,1.0909000000000002,43.05130000000001,2.0,2.0,5.0,2.0,1.0,0.0,0.0,1.0,78.34,64.71341865276594,2.736661467071344
"sodium 2-{[4-(cyclohexylamino)-9,10-dioxo-9,10-dihydroanthracen-1-yl]amino}-5-ethoxybenzene-1-sulfonate",[Na+].CCOc1cccc2C(=O)c3c(Nc4ccccc4[S]([O-])(=O)=O)ccc(NC5CCCCC5)c3C(=O)c12,-1.9878367861,G1,2.257,139.1015999999999,8.0,2.0,10.0,7.0,3.0,1.0,2.0,5.0,124.63,243.76169979809575,3.361994102434189e-06
"2-methylpentane-1,5-diamine",CC(CN)CCCN,-1.3272487005,G2,0.3201000000000001,36.50679999999999,2.0,2.0,2.0,4.0,0.0,0.0,0.0,0.0,52.04,51.24374299383801,2.862065598305084
"6-amino-1,3-dimethyl-1,2,3,4-tetrahydropyrimidine-2,4-dione",CN1C(=CC(=O)N(C)C1=O)N,-1.4535787311,G1,-1.3337999999999988,41.336400000000005,5.0,1.0,5.0,0.0,1.0,0.0,0.0,1.0,70.02,62.68346118047409,3.7357461747802896
6-pent-3-en-1-yltetrahydro-2H-pyran-2-one,C/C=C/CCC1CCCC(=O)O1,-1.4887262913,G3,2.438400000000001,47.779000000000025,2.0,0.0,2.0,3.0,0.0,1.0,1.0,1.0,26.3,73.60336320123618,2.179877272903438
potassium tetrafluoroboranuide,[K+].F[B-](F)(F)F,-1.3676388693,G1,-1.6960000000000002,10.186000000000002,0.0,0.0,6.0,0.0,0.0,0.0,0.0,0.0,0.0,74.81422737291244,0.0
2-hydroxy-3-phenoxypropyl prop-2-enoate,CCCOC(=O)C(/O)=C/Oc1ccccc1,-1.6225463588,G1,2.418,59.03180000000003,4.0,1.0,4.0,5.0,1.0,0.0,0.0,1.0,55.760000000000005,94.11429908494593,2.4762076204837555
"2,6-diamino-1,4-dihydropyrimidin-4-one",NC1=CC(=O)N=C(N)N1,-1.378146596,G1,-1.0657000000000003,33.6825,4.0,3.0,5.0,0.0,1.0,0.0,0.0,1.0,97.79,50.71200257545919,3.332334626732985
3-amino-2-chloro-6-methylphenol,Cc1ccc(N)c(Cl)c1O,-1.4815528695,G1,1.93622,42.26620000000001,2.0,2.0,3.0,0.0,1.0,0.0,0.0,1.0,46.25,64.23373590998396,3.3421538077705124
Diazobarbituric acid,[N-]=[N+]=C1C(=O)NC(=O)NC1=O,-1.4717570191,G1,-1.9768000000000003,30.3078,3.0,2.0,7.0,0.0,0.0,1.0,1.0,1.0,111.67,59.99480354498336,3.018323259975085
"oxydipropane-1,2-diyl bisacrylate",CC(COCC(C)OC(=O)C=C)OC(=O)C=C,-1.6682980883,G1,1.2384,62.321000000000026,5.0,0.0,5.0,8.0,0.0,0.0,0.0,0.0,61.830000000000005,101.03808811043191,3.679838250701896