Name,SMILES,Solubility,Group,MolLogP,MolMR,NumHAcceptors,NumHDonors,NumHeteroatoms,NumRotatableBonds,NumAromaticRings,NumSaturatedRings,NumAliphaticRings,RingCount,TPSA,LabuteASA,BalabanJ
"1,4-dioxane, 2,5-dimethoxy-2,5-dimethyl-",COC1(C)COC(C)(CO1)OC,-1.246,G1,0.7584,42.73200000000001,4.0,0.0,4.0,2.0,0.0,1.0,1.0,1.0,36.92,72.74219559310409,2.490703945286552
"acetic acid, [2-methoxy-4-(1-propenyl)phenoxy]-",COc1cc(\C=C\C)ccc1OCC([O-])=O,-1.5826,G1,0.857,58.20400000000003,4.0,0.0,4.0,5.0,1.0,0.0,0.0,1.0,58.59,94.11429908494593,2.879385348205376
azacyclotetradecan-2-one,O=C1CCCCCCCCCCCCN1,-2.6260000000000003,G1,3.407300000000002,63.79670000000005,1.0,1.0,2.0,0.0,0.0,1.0,1.0,1.0,29.1,93.82410953071144,2.126499891372904
"benzenemethanol, 3,4,5-trichloro-",OCc1cc(Cl)c(Cl)c(Cl)c1,-3.0948,G1,3.139100000000001,47.39480000000002,1.0,1.0,4.0,1.0,1.0,0.0,0.0,1.0,20.23,79.50037766673461,3.2055654495767256
iodine,II,-2.886,G1,1.7714,28.04,0.0,0.0,2.0,0.0,0.0,0.0,0.0,0.0,0.0,36.93454135198231,1.0
8-quinazolinol,Oc1cccc2cncnc12,-2.0361,G1,1.3353999999999997,41.20280000000002,3.0,1.0,3.0,0.0,2.0,0.0,0.0,2.0,46.010000000000005,63.34659736532121,2.9131611636048604
butane-1-thiosulfinic acid s-butyl ester,CCCCS[S](=O)CCCC,-2.2886,G1,2.983500000000001,55.28340000000004,2.0,0.0,3.0,7.0,0.0,0.0,0.0,0.0,17.07,76.19117214389662,3.089479528269324
phenylethanolamine,NCC(O)c1ccccc1,-0.4764,G1,0.6787000000000001,40.45620000000002,2.0,2.0,2.0,2.0,1.0,0.0,0.0,1.0,46.25,60.2954117974989,2.746978188530898
"2,3-dichlorobutane",CC(Cl)C(C)Cl,-2.3541,G3,2.2410000000000005,30.62999999999999,0.0,0.0,2.0,1.0,0.0,0.0,0.0,0.0,0.0,48.440609824782726,2.993497243478473
"2-furancarboxamide, n-hydroxy-n-phenyl-",ON(C(=O)c1occc1)c2ccccc2,-3.194,G1,2.3156000000000008,53.74600000000002,3.0,1.0,4.0,2.0,2.0,0.0,0.0,2.0,53.68,86.31739672595558,2.225751036764712
hydrogen fluoride,[H+].[F-],1.6988,G1,-2.8835,1.112,0.0,0.0,1.0,0.0,0.0,0.0,0.0,0.0,0.0,7.58193909380028,0.0
sulfuric acid,O[S](O)(=O)=O,1.0084,G1,-0.6527999999999998,14.1774,2.0,2.0,5.0,0.0,0.0,0.0,0.0,0.0,74.6,29.0061825517276,4.062942298971397
"nicotinic acid, propyl ester",CCCOC(=O)c1cccnc1,-1.2403,G1,1.6484,44.81050000000003,3.0,0.0,3.0,3.0,1.0,0.0,0.0,1.0,39.19,71.38588688758054,2.539556056342092
ronidazole,Cn1c(COC(N)=O)ncc1[N+]([O-])=O,-1.8433,G1,-0.0763999999999999,44.23480000000001,6.0,1.0,8.0,3.0,1.0,0.0,0.0,1.0,113.28,78.43294310030609,2.793063252345449
"dl-norleucine, n-acetyl-",CCCCC(NC(C)=O)C(O)=O,-0.6823,G3,0.7659,44.76550000000001,2.0,2.0,4.0,5.0,0.0,0.0,0.0,0.0,66.4,71.9609859644974,3.86542455318872
crotoxyphos,CO[P](=O)(OC)OC(/C)=C/C(=O)OC(C)c1ccccc1,-2.4973,G1,3.6121000000000025,77.41550000000004,6.0,0.0,7.0,7.0,1.0,0.0,0.0,1.0,71.06,123.82665069503196,2.636640599406943
"1-naphthalenecarboxylic acid, 2-chloro-",OC(=O)c1c(Cl)ccc2ccccc12,-2.3152,G1,3.1914000000000007,55.91730000000002,1.0,1.0,3.0,1.0,2.0,0.0,0.0,2.0,37.3,85.73703184475023,2.8951601769882984
pretilchlor,CCCOCCN(C(=O)CCl)c1c(CC)cccc1CC,-3.795,G1,3.8098000000000023,89.38100000000006,2.0,0.0,4.0,9.0,1.0,0.0,0.0,1.0,29.54,132.78393360449536,3.0405929299275014
nitrogen,N#N,-0.1901,G1,0.03016,3.45,2.0,0.0,2.0,0.0,0.0,0.0,0.0,0.0,47.58,12.12458843143809,3.0
copper sulfate pentahydrate,O.O.O.O.O.[Cu++].[O-][S]([O-])(=O)=O,-0.8922,G1,-5.463999999999998,28.5436,4.0,0.0,11.0,0.0,0.0,0.0,0.0,0.0,237.76,73.00556996602025,-5.333333296666667e-09
arsenic acid,O[As](O)(O)=O,0.6187,G1,-2.1706,13.0969,1.0,3.0,5.0,0.0,0.0,0.0,0.0,0.0,77.75999999999999,31.40997704072128,3.472066495600119
oxygen,O=O,0.0691,G1,0.067,6.734,2.0,0.0,2.0,0.0,0.0,0.0,0.0,0.0,34.14,11.307062301569806,2.0
chlorine,ClCl,-1.0513,G5,1.379,11.706,0.0,0.0,2.0,0.0,0.0,0.0,0.0,0.0,0.0,22.57062952123243,1.0
mevinphos,COC(=O)\C=C(/C)O[P](=O)(OC)OC,0.4276,G3,1.4807,48.48250000000003,6.0,0.0,7.0,5.0,0.0,0.0,0.0,0.0,71.06,82.40461437457131,4.44286476234683
"1,1,1-trichloropropane",CCC(Cl)(Cl)Cl,-1.8898,G1,2.7666000000000013,30.580999999999992,0.0,0.0,3.0,0.0,0.0,0.0,0.0,0.0,0.0,52.37893393726779,3.168489872670569
demeton,CCO[P](=O)(OCC)SCCSCC.CCO[P](=S)(OCC)OCCSCC,-3.9351,G1,6.707400000000007,132.8035,10.0,0.0,12.0,18.0,0.0,0.0,0.0,0.0,63.22000000000001,189.74772326361733,0.0
bufencarb,CCCC(C)c1cccc(OC(=O)NC)c1.CCC(CC)c2cccc(OC(=O)NC)c2,-3.947,G1,6.616800000000007,129.69740000000004,4.0,2.0,6.0,8.0,2.0,0.0,0.0,2.0,76.66,192.25337710696013,3.19999990366667e-07
"ethanol, 2-(octyloxy)-",CCCCCCCCOCCO,-2.125,G1,2.355800000000001,51.28080000000004,2.0,1.0,2.0,9.0,0.0,0.0,0.0,0.0,29.46,75.93150903910191,2.72724281291869
"butanenitrile, 2-hydroxy-3-methyl-, (r)-",CC(C)[C@@H](O)C#N,0.3048,G1,0.52688,26.457799999999988,2.0,1.0,2.0,1.0,0.0,0.0,0.0,0.0,44.02,43.38583291908071,3.3987552213705525
"1-butanol, 2-ethyl-, acetate",CCC(CC)COC(C)=O,-1.3528,G1,1.9857,40.705000000000005,2.0,0.0,2.0,4.0,0.0,0.0,0.0,0.0,26.3,62.56891315815644,3.344594220914084
"1,3-dichloropropene (trans)",ClC/C=C/Cl,-1.598,G1,1.9777,25.712999999999997,0.0,0.0,2.0,1.0,0.0,0.0,0.0,0.0,0.0,41.386064678201855,2.622415807990217
"1,1-cyclopropanedicarboxylic acid, 2-methyl-",CC1CC1(C(O)=O)C(O)=O,0.8412,G1,0.1818,31.48559999999999,2.0,2.0,4.0,2.0,0.0,1.0,1.0,1.0,74.6,57.46964215076291,2.8334968917905865
"butanedioic acid, 2,2-diphenyl-",OC(=O)CC(C(O)=O)(c1ccccc1)c2ccccc2,-2.4318,G1,2.532000000000001,73.55260000000004,2.0,2.0,4.0,5.0,2.0,0.0,0.0,2.0,74.6,115.859777487627,2.6941470772307023
"2,2-dibromo-2-cyanoacetamide",NC(=O)C(Br)(Br)C#N,-1.2075,G1,0.48138,35.392399999999995,2.0,1.0,5.0,1.0,0.0,0.0,0.0,0.0,66.88,63.09822294643068,4.193609558837734
glyburide,COc1ccc(Cl)cc1C(=O)NCCc2ccc(cc2)[S](=O)(=O)NC(=O)NC3CCCCC3,-5.0917,G1,3.641700000000002,126.20940000000006,5.0,3.0,10.0,8.0,2.0,1.0,1.0,3.0,113.6,198.64724753010975,1.513273099027308
methamidophos,CO[P](N)(=O)SC,0.8504,G1,1.0626,32.317899999999995,3.0,1.0,5.0,2.0,0.0,0.0,0.0,0.0,52.32,46.86180325120816,3.605378627989909
n-isobutylmorpholine,CC(C)CN1CCOCC1,-0.7089,G1,0.9746,42.09700000000001,2.0,0.0,2.0,2.0,0.0,1.0,1.0,1.0,12.47,63.16139357478681,2.1312821385375686
"l-tyrosine, n-acetyl-3,5-dibromo-",CC(=O)N[C@@H](Cc1cc(Br)c(O)c(Br)c1)C(O)=O,-2.1830000000000003,G1,2.049,72.4513,3.0,3.0,7.0,4.0,1.0,0.0,0.0,1.0,86.63,120.45258279085031,2.9383045162851213
6-quinolinecarboxylic acid,OC(=O)c1ccc2ncccc2c1,-0.0456,G1,1.933,48.70230000000002,2.0,1.0,3.0,1.0,2.0,0.0,0.0,2.0,50.19,74.65341359881506,2.6860346638769905
"3-pyridinecarboxamide, n-cyclohexyl-",O=C(NC1CCCCC1)c2cccnc2,-2.319,G1,2.1441,58.57620000000004,2.0,1.0,3.0,2.0,1.0,1.0,1.0,2.0,41.99,89.91119903134232,1.9148932076135212
3-hydroxycamphor,CC1(C)C2CCC1(C)C(=O)C2O,-0.9249,G1,1.3724999999999998,45.62580000000002,2.0,1.0,2.0,0.0,0.0,2.0,2.0,2.0,37.3,72.96782360258034,2.504932615566796
"benzenamine, 2-bromo-5-nitro-",Nc1cc(ccc1Br)[N+]([O-])=O,-3.5583,G1,1.9395,45.2088,3.0,1.0,5.0,1.0,1.0,0.0,0.0,1.0,69.16,71.29181714465084,3.1515496683060507
"3-octyloxy-propane-1,2-diol",CCCCCCCCOCC(O)CO,-1.9208,G1,1.7167,57.28760000000005,3.0,2.0,3.0,10.0,0.0,0.0,0.0,0.0,49.69,87.09068490569454,2.916821983653843
mcpb-ethyl,CCOC(=O)CCCOc1ccc(Cl)cc1C,-4.4095,G1,3.3705200000000017,67.55100000000004,3.0,0.0,4.0,6.0,1.0,0.0,0.0,1.0,35.53,106.67787670621242,2.287026248481329
bromperidol,OC1(CCN(CCCC(=O)c2ccc(F)cc2)CC1)c3ccc(Br)cc3,-3.6693,G1,4.534700000000004,103.67730000000005,3.0,1.0,5.0,6.0,2.0,1.0,1.0,3.0,40.54,161.515817732612,1.4445792101332058
"phenol, 2,3,4,6-tetrachloro-5-methyl-",Cc1c(Cl)c(O)c(Cl)c(Cl)c1Cl,-4.6021,G1,4.314220000000001,52.88380000000001,1.0,1.0,5.0,0.0,1.0,0.0,0.0,1.0,20.23,89.80364389361625,3.603567451474548
"phosphoric acid, ethyl dimethyl ester",CCO[P](=O)(OC)OC,0.5112,G1,1.4238,33.25049999999999,4.0,0.0,5.0,4.0,0.0,0.0,0.0,0.0,44.760000000000005,54.72432373401511,3.780661921830192
terbufos sulfoxide,CCO[P](=S)(OCC)SC[S](=O)C(C)(C)C,-2.4421,G1,3.5218000000000025,77.89040000000004,5.0,0.0,7.0,7.0,0.0,0.0,0.0,0.0,35.53,110.42508509916156,4.334183853266545
nitrothal-isopropyl,CC(C)OC(=O)c1cc(cc(c1)[N+]([O-])=O)C(=O)OC(C)C,-5.0389,G3,2.725200000000001,74.19940000000003,6.0,0.0,7.0,5.0,1.0,0.0,0.0,1.0,95.74,121.5540504162709,3.2022208266076486
ethephon,O[P](O)(=O)CCCl,0.8401,G1,0.4029,27.6311,1.0,2.0,5.0,2.0,0.0,0.0,0.0,0.0,57.53,46.45886728984771,3.364698959665056
methylcyclopentadienyl manganese,[Mn].C[c-]1cccc1.[C-]#[O+].[C-]#[O+].[C-]#[O+],-3.8762,G3,1.59889,38.560500000000005,0.0,0.0,4.0,0.0,1.0,0.0,0.0,1.0,59.7,88.13513969668425,-5.0844155509824586e-08
landrin,CNC(=O)Oc1cc(C)cc(C)c1C,-1.9851,G1,2.3300600000000005,55.73670000000003,2.0,1.0,3.0,1.0,1.0,0.0,0.0,1.0,38.33,84.08104320463868,3.017829316638997
propagermanium,OC(=O)CC[Ge](=O)O[Ge](=O)CCC(O)=O,-1.4932,G1,-0.2102000000000004,48.085600000000014,5.0,2.0,9.0,8.0,0.0,0.0,0.0,0.0,117.97,94.74514710375152,3.714685560910676
ancymidol,COc1ccc(cc1)C(O)(C2CC2)c3cncnc3,-2.5959,G1,2.1311,70.74880000000003,4.0,1.0,4.0,4.0,2.0,1.0,1.0,3.0,55.24,111.65445168761067,2.045722086934536
"o1,o3-diisopropyl-glycerol",CC(C)OCC(O)COC(C)C,0.0549,G1,1.1972999999999998,48.18280000000002,3.0,1.0,3.0,6.0,0.0,0.0,0.0,0.0,38.69,74.68011215421217,3.271703945882744
"benzoic acid, 5-acetyl-2-hydroxy-",CC(=O)c1ccc(O)c(c1)C([O-])=O,-2.2304,G1,-0.0417,42.441800000000015,4.0,1.0,4.0,2.0,1.0,0.0,0.0,1.0,77.43,74.43774116716635,3.267052212361691
"propane, 1,2,2,3-tetrachloro-",ClCC(Cl)(Cl)CCl,-2.5785,G1,2.637900000000001,35.87700000000001,0.0,0.0,4.0,2.0,0.0,0.0,0.0,0.0,0.0,62.68220016414946,3.360435142696057
"1,4-benzenedicarboxamide, n,n,n',n'-tetramethyl-",CN(C)C(=O)c1ccc(cc1)C(=O)N(C)C,0.2656,G1,1.0902,62.47700000000003,2.0,0.0,4.0,2.0,1.0,0.0,0.0,1.0,40.620000000000005,95.46376734637089,2.915649014726069
"3-pyridinecarboxamide, n-2-pyridinyl-",O=C(Nc1ccccn1)c2cccnc2,-2.9771,G1,1.7289,56.42720000000002,3.0,1.0,4.0,2.0,2.0,0.0,0.0,2.0,54.88,87.00411968550242,2.1164219931177755
phosphamidon,CCN(CC)C(=O)\C(Cl)=C(/C)O[P](=O)(OC)OC,0.5233,G1,2.7426000000000013,69.19050000000004,5.0,0.0,8.0,7.0,0.0,0.0,0.0,0.0,65.07000000000001,112.44899538533927,5.01806028081648
bromofenoxim,[O-][N+](=O)c1ccc(ONC=C2C=C(Br)C(=O)C(=C2)Br)c(c1)[N+]([O-])=O,-6.6637,G1,3.4106000000000014,90.6245,7.0,1.0,11.0,5.0,1.0,0.0,1.0,2.0,124.61,150.7313723391102,2.1800888942639345
"o-ethyl s,s-dipropyl phosphorodithioate",CCCS[P](=O)(OCC)SCCC,-2.5094,G1,4.417400000000004,64.73050000000003,4.0,0.0,5.0,8.0,0.0,0.0,0.0,0.0,26.3,89.52705051330081,3.9208737294960496
"8h-purin-8-one, 1,7-dihydro-",O=C1Nc2cncnc2N1,-1.5141,G1,-0.3538,34.5094,3.0,2.0,5.0,0.0,2.0,0.0,0.0,2.0,74.43,55.14269411512978,3.007619546803024
n-nitrososarcosine,CN(CC(O)=O)N=O,0.9278,G1,-0.3157999999999999,26.060799999999997,3.0,1.0,5.0,3.0,0.0,0.0,0.0,0.0,69.97,45.84959278353137,3.3784163699764536
"imidodicarbonimidic diamide, n-1-naphthalenyl-",NC(=N)NC(=N)Nc1cccc2ccccc12,-2.3151,G1,1.6695400000000002,70.34720000000002,2.0,5.0,5.0,1.0,2.0,0.0,0.0,2.0,97.78,98.6532689427838,2.2969488708213017
kitazine,CCO[P](=O)(OCC)SCc1ccccc1,-2.4155,G1,4.100900000000003,68.59550000000004,4.0,0.0,5.0,7.0,1.0,0.0,0.0,1.0,35.53,100.8178392153254,2.532491116196993
"1-butanamine, n-ethyl-",CCCCNCC,-0.4405,G3,1.396,33.45169999999999,1.0,1.0,1.0,4.0,0.0,0.0,0.0,0.0,12.03,46.11382378342063,2.447472887876344
"2,4(1h,3h)-pteridinedione, 1,3-dimethyl-",CN1C(=O)N(C)c2nccnc2C1=O,-1.4598,G1,-0.9728000000000006,50.02000000000001,6.0,0.0,6.0,0.0,2.0,0.0,0.0,2.0,69.78,78.46453097708962,3.190149417965173
"7-nitro-2,2-dimethyl-2,3-dihydrobenzofuran",CC1(C)Cc2cccc(c2O1)[N+]([O-])=O,-3.2068,G1,2.3083,51.50740000000002,3.0,0.0,4.0,1.0,1.0,0.0,1.0,2.0,52.37,81.65186137556084,2.516201296090062
"l-cysteine, n-acetyl-s-(3,4-dichlorophenyl)-",CC(=O)N[C@@H](CSc1ccc(Cl)c(Cl)c1)C(O)=O,-2.8868,G1,2.6748000000000003,72.42650000000003,3.0,2.0,7.0,5.0,1.0,0.0,0.0,1.0,66.4,118.65289630650015,2.6351654961459827
pyrazophos,CCOC(=O)c1cn2nc(O[P](=S)(OCC)OCC)cc2nc1C,-4.9489,G1,2.890720000000001,91.84550000000004,9.0,0.0,10.0,8.0,2.0,0.0,0.0,2.0,84.18,144.8724810814642,2.337540929930071
"2(1h)-pyridinone, 5-iodo-",IC1=CNC(=O)C=C1,-1.7423,G1,0.9795,39.779700000000005,1.0,1.0,3.0,0.0,1.0,0.0,0.0,1.0,32.86,60.07441132153088,3.223015221038714
guazatine free base,NC(N)=NCCCCCCCCNCCCCCCCCN=C(N)N,0.3322,G1,1.8040000000000005,109.62730000000003,3.0,5.0,7.0,18.0,0.0,0.0,0.0,0.0,140.83,153.64333691595107,3.0497863979560718
2-diethylamino-4-ethylamino-6-methoxy-s-triazi*,CCNc1nc(OC)nc(n1)N(CC)CC,-2.9987,G1,1.1581999999999997,64.10370000000003,6.0,1.0,6.0,6.0,1.0,0.0,0.0,1.0,63.17000000000001,96.06818294643104,3.018729984583947
"propanoic acid, 2-hydroxy-, 2-butoxy-1-methyl-2-",CCCCOC(=O)C(C)OC(=O)C(C)O,-1.3752,G1,0.6421999999999999,53.10180000000004,5.0,1.0,5.0,6.0,0.0,0.0,0.0,0.0,72.83,89.36809846869632,3.832310124937041
"urea, n,n''-methylenebis-",NC(=O)NCNC(N)=O,-0.6525,G1,-1.7195,30.305200000000006,2.0,4.0,6.0,2.0,0.0,0.0,0.0,0.0,110.24,51.57168521795181,3.1028259423155773
1-amino-2-butanol,CCC(O)CN,1.0499,G1,-0.2839999999999999,25.3522,2.0,2.0,2.0,2.0,0.0,0.0,0.0,0.0,46.25,37.968201820228096,2.7541847860376616
quinalphos,CCO[P](=S)(OCC)Oc1cnc2ccccc2n1,-4.1322,G1,3.3061000000000016,77.70300000000003,6.0,0.0,7.0,6.0,2.0,0.0,0.0,2.0,53.47,116.73269586244524,2.258211706768993
isonicotinic acid n-oxide,OC(=O)c1cc[n+]([O-])cc1,-1.102,G1,0.0182000000000001,32.3613,2.0,1.0,4.0,1.0,1.0,0.0,0.0,1.0,64.24,56.92999280534918,3.003400684579818
"piperidine, 3-propyl-,",CCCC1CCCNC1,-1.011,G1,1.7860999999999998,40.50170000000001,1.0,1.0,1.0,2.0,0.0,1.0,1.0,1.0,12.03,57.83787685868462,2.077860755461056
"2-propanol, 1-chloro-, phosphate (3:1)",CC(CCl)O[P](=O)(OC(C)CCl)OC(C)CCl,-2.4361,G5,4.026200000000004,71.40750000000004,4.0,0.0,8.0,9.0,0.0,0.0,0.0,0.0,44.760000000000005,117.45883298664312,4.616720085277338
delmadinone acetate,CC(=O)OC1(CCC2C3C=C(Cl)C4=CC(=O)C=CC4(C)C3CCC12C)C(C)=O,-4.9453,G1,4.527700000000004,106.49600000000004,4.0,0.0,5.0,2.0,0.0,2.0,4.0,4.0,60.440000000000005,170.5772215904051,1.8008203380301535
azidamfenicol,OC[C@@H](NC(=O)CN=[N+]=[N-])[C@H](O)c1ccc(cc1)[N+]([O-])=O,-1.1692,G1,0.4155999999999996,71.08570000000002,6.0,3.0,10.0,7.0,1.0,0.0,0.0,1.0,161.45999999999998,118.34266322079844,2.773712649772724
sec-butylamine,CCC(C)N,0.1851,G1,0.7436,23.9404,1.0,1.0,1.0,1.0,0.0,0.0,0.0,0.0,26.02,33.17396806803209,2.5395388613593908
4-bromo-trans-crotonic acid,OC(=O)\C=C\CBr,-0.7403,G1,1.0221,30.569799999999997,1.0,1.0,3.0,2.0,0.0,0.0,0.0,0.0,37.3,49.96777779671625,3.2641672832723474
metiazinic acid,CN1c2ccccc2Sc3ccc(CC(O)=O)cc13,-3.9422,G1,3.5462000000000016,76.40980000000003,3.0,1.0,4.0,2.0,2.0,0.0,1.0,3.0,40.54,115.41619206303,2.0348525080658
"barbituric acid, 5,5-di-2-butenyl-",C/C=C/CC1(C\C=C\C)C(=O)NC(=O)NC1=O,-2.1973,G1,1.2712,62.97640000000003,3.0,2.0,5.0,4.0,0.0,1.0,1.0,1.0,75.27000000000001,99.9528677356419,3.050113512475137
"3-furancarboxylic acid, 2-methyl-5-(1,2,3,4-tetr",Cc1oc(cc1C([O-])=O)[C@H](O)[C@H](O)[C@H](O)CO,-1.2774,G1,-2.30098,51.834700000000026,7.0,4.0,7.0,5.0,1.0,0.0,0.0,1.0,134.19,96.54807593097728,2.9293613664038114
"4-pteridinamine, n,n-dimethyl-",CN(C)c1ncnc2nccnc12,-1.0216,G1,0.4857999999999999,49.45500000000003,5.0,0.0,5.0,1.0,2.0,0.0,0.0,2.0,54.8,75.48137747401479,2.756733762067337
"propanoic acid, 3-ethoxy-, methyl ester",CCOCCC(=O)OC,-0.0719,G1,0.5860000000000001,33.12599999999999,3.0,0.0,3.0,4.0,0.0,0.0,0.0,0.0,35.53,54.952574158870114,2.9730624080867365
"propanoic acid, 3-ethoxy-, butyl ester",CCCCOC(=O)CCOCC,-1.6391,G1,1.7563,46.977000000000025,3.0,0.0,3.0,7.0,0.0,0.0,0.0,0.0,35.53,74.04740050205993,3.1032830489797623
"propionic acid, 3-ethoxy-, pentyl ester",CCCCCOC(=O)CCOCC,-2.1956,G1,2.1464,51.59400000000004,3.0,0.0,3.0,8.0,0.0,0.0,0.0,0.0,35.53,80.41234261645653,3.105082536306579
"propionic acid, 3-ethoxy-, hexyl ester",CCCCCCOC(=O)CCOCC,-2.8289,G1,2.536500000000001,56.21100000000005,3.0,0.0,3.0,9.0,0.0,0.0,0.0,0.0,35.53,86.77728473085314,3.1012237818066595
"propionic acid, 3-propoxy-, methyl ester",CCCOCCC(=O)OC,-0.6334,G1,0.9761,37.743,3.0,0.0,3.0,5.0,0.0,0.0,0.0,0.0,35.53,61.317516273266726,2.9617756061821483
"propanoic acid, 3-propoxy-, propyl ester",CCCOCCC(=O)OCCC,-1.6848,G1,1.7563,46.977000000000025,3.0,0.0,3.0,7.0,0.0,0.0,0.0,0.0,35.53,74.04740050205993,3.0837207939517115
"propanoic acid, 3-butoxy-, butyl ester",CCCCOCCC(=O)OCCCC,-2.4029,G1,2.536500000000001,56.21100000000005,3.0,0.0,3.0,9.0,0.0,0.0,0.0,0.0,35.53,86.77728473085314,3.1012237818066595
Dibenzo-18-crown-6,C1COc2ccccc2OCCOCCOc3ccccc3OCCO1,-4.6935,G1,2.948800000000001,96.50200000000004,6.0,0.0,6.0,0.0,2.0,0.0,1.0,3.0,55.38000000000001,153.08347446424597,1.558694870332623
difenoxuron,COc1ccc(Oc2ccc(NC(=O)N(C)C)cc2)cc1,-4.1558,G1,3.581000000000002,82.21570000000004,3.0,1.0,5.0,4.0,2.0,0.0,0.0,2.0,50.8,123.64657419601636,1.9952304115596735
fenazaflor,FC(F)(F)c1nc2cc(Cl)c(Cl)cc2n1C(=O)Oc3ccccc3,-4.4603,G1,5.409000000000001,82.619,4.0,0.0,9.0,1.0,3.0,0.0,0.0,3.0,44.120000000000005,142.91703196673825,2.167177373898223
Valylglycine,CC(C)C(N)C(=O)NCC(O)=O,0.4579,G1,-0.829499999999999,43.4589,3.0,3.0,5.0,4.0,0.0,0.0,0.0,0.0,92.42000000000002,70.9359345471135,3.796840061984721
"1,3-benzenedicarboxamide, n,n,n',n'-tetramethyl-",CN(C)C(=O)c1cccc(c1)C(=O)N(C)C,0.487,G1,1.0902,62.47700000000003,2.0,0.0,4.0,2.0,1.0,0.0,0.0,1.0,40.620000000000005,95.46376734637089,3.045391096253597
"butanoic acid, 4,4'-diselenobis-",OC(=O)CCC[Se][Se]CCCC(O)=O,-2.2471,G1,0.8759999999999999,54.86160000000002,2.0,2.0,6.0,9.0,0.0,0.0,0.0,0.0,74.6,94.31883380052358,2.9895441287192144
ethyl 4-chlorophenoxyacetate,CCOC(=O)COc1ccc(Cl)cc1,-2.4206,G1,2.2819000000000003,53.58000000000003,3.0,0.0,4.0,4.0,1.0,0.0,0.0,1.0,35.53,87.5830503630226,2.379180758892864
chlorfenprop methyl,COC(=O)C(Cl)Cc1ccc(Cl)cc1,-3.7655,G1,2.6629000000000005,56.81300000000002,2.0,0.0,4.0,3.0,1.0,0.0,0.0,1.0,26.3,92.7727713603974,2.601411312406869
3-(2-methylphenoxy)pyridazine,Cc1ccccc1Oc2cccnn2,-1.969,G1,2.5773200000000003,53.285000000000025,3.0,0.0,3.0,2.0,2.0,0.0,0.0,2.0,35.010000000000005,82.37473419976222,2.2369588843757167
"1,2,4-triazolidine-3,5-dione, 4-methyl-1-phenyl-",CN1C(=O)NN(C1=O)c2ccccc2,-2.9804,G1,-0.135700000000001,51.63070000000002,4.0,1.0,5.0,1.0,2.0,0.0,0.0,2.0,59.79,79.21333656454784,2.7051390520671648
"benzamide, 2-(2-propenyloxy)-",NC(=O)c1ccccc1OCC=C,-2.2273,G1,1.3503,50.65190000000001,2.0,1.0,3.0,4.0,1.0,0.0,0.0,1.0,52.32000000000001,76.81652657146249,2.90309759651014
"2,5-piperazinedione, 3-(1-methylethyl)-",CC(C)C1NC(=O)CNC1=O,-0.8926,G1,-0.7430000000000001,39.778400000000005,2.0,2.0,4.0,1.0,0.0,1.0,1.0,1.0,58.2,65.34584112798358,2.611626791152648
"3-heptanol, 4-methyl- (van8ci9ci)",CCCC(C)C(O)CC,-1.9636,G1,2.1935,40.369800000000005,1.0,1.0,1.0,4.0,0.0,0.0,0.0,0.0,20.23,58.08807958080181,3.324760174025222
"1,6-dioxaspiro[4,4]nonane, 2,2,7,7-tetramethyl-",CC1(C)CCC2(CCC(C)(C)O2)O1,-1.9644,G1,2.8607000000000014,51.52700000000004,2.0,0.0,2.0,0.0,0.0,2.0,2.0,2.0,18.46,80.60410032375094,2.098094568640847
"phenol, 2,2'-sulfonylbis-",Oc1ccccc1[S](=O)(=O)c2ccccc2O,-3.3192,G1,1.9306000000000003,61.665400000000034,4.0,2.0,5.0,2.0,2.0,0.0,0.0,2.0,74.6,98.70236321173964,2.674969922699457
"dl-phenylalanine, n-(2-cyanoethyl)-",[O-]C(=O)[C@H](Cc1ccccc1)[NH2+]CCC#N,-1.4939,G1,-1.1753199999999993,55.96340000000003,3.0,1.0,4.0,6.0,1.0,0.0,0.0,1.0,80.53,94.51925352319316,2.5206951904685395
"1,1,2,3,3-pentachloropropane",ClC(Cl)C(Cl)C(Cl)Cl,-2.7223,G1,3.2012,40.62900000000001,0.0,0.0,5.0,2.0,0.0,0.0,0.0,0.0,0.0,72.98546639103112,3.464226847231096
"l-tyrosine, 3,5-dichloro-",NC(Cc1cc(Cl)c(O)c(Cl)c1)C(O)=O,-1.7546,G1,1.6533999999999998,57.44200000000001,3.0,3.0,6.0,3.0,1.0,0.0,0.0,1.0,83.55000000000001,96.22264221789864,2.9237270307423464
"glutaric acid, 3-hydroxy-3-(phenylcarbamoyl)-",OC(=O)CC(O)(CC(O)=O)C(=O)Nc1ccccc1,-0.4874,G1,0.3055999999999997,64.52710000000002,4.0,4.0,7.0,6.0,1.0,0.0,0.0,1.0,123.93,108.038185546204,2.879041176282545
"benzoic acid, 4-hydroxy-3-iodo-, methyl ester",COC(=O)c1ccc(O)c(I)c1,-3.3138,G1,1.7834,52.16330000000002,3.0,1.0,4.0,1.0,1.0,0.0,0.0,1.0,46.53,83.49242655108048,3.0455637915397915