Name,SMILES,Solubility,Group,MolLogP,MolMR,NumHAcceptors,NumHDonors,NumHeteroatoms,NumRotatableBonds,NumAromaticRings,NumSaturatedRings,NumAliphaticRings,RingCount,TPSA,LabuteASA,BalabanJ
n-(hydroxymethyl)acrylamide,OCNC(=O)C=C,0.8101,G1,-0.7616,25.4255,2.0,2.0,3.0,2.0,0.0,0.0,0.0,0.0,49.33,41.65009237468293,3.172899533850818
"butanamide, n,n'-1,2-ethanediylbis-",CCCC(=O)NCCNC(=O)CCC,-0.6222,G1,0.8189999999999995,55.83540000000004,2.0,2.0,4.0,7.0,0.0,0.0,0.0,0.0,58.2,85.44649862470264,3.2823051857661723
6-undecanone,CCCCCC(=O)CCCCC,-3.5322,G1,3.716100000000002,53.29100000000004,1.0,0.0,1.0,8.0,0.0,0.0,0.0,0.0,17.07,76.5501942718394,3.1032830489797623
butyl nitrate,CCCCO[N+]([O-])=O,-2.0268,G1,0.9948,27.85439999999999,3.0,0.0,4.0,4.0,0.0,0.0,0.0,0.0,52.37,47.55463682250403,2.822354554248032
3-hexyne,CCC#CCC,-2.1675,G3,1.8098,28.357999999999983,0.0,0.0,0.0,0.0,0.0,0.0,0.0,0.0,0.0,39.56318699167186,2.8986676180251862
n-nitrosopyrrolidine,O=NN1CCCC1,0.9995,G1,0.7636000000000001,26.60199999999999,2.0,0.0,3.0,1.0,0.0,1.0,1.0,1.0,32.67,42.25294789215896,2.261812524676334
n-nitrosohexamethyleneimine,O=NN1CCCCCC1,-1.0006,G1,1.5438,35.836,2.0,0.0,3.0,1.0,0.0,1.0,1.0,1.0,32.67,54.98283212095218,2.2587454754143512
"2,3,6-trichlorophenol",Oc1c(Cl)ccc(Cl)c1Cl,-2.6422,G1,3.3523999999999994,43.13680000000001,1.0,1.0,4.0,0.0,1.0,0.0,0.0,1.0,20.23,73.135435552338,3.3421538077705124
2-azacyclo-nonanone,O=C1CCCCCCCN1,0.6329,G1,1.4568,40.71170000000001,1.0,1.0,2.0,0.0,0.0,1.0,1.0,1.0,29.1,61.99939895872839,2.209817908590539
"2,3-dihydro-1,2-benzisothiazole-1,1-dioxide",O=[S]1(=O)NCc2ccccc12,-1.5208,G1,0.4785000000000001,40.467500000000015,2.0,1.0,4.0,0.0,1.0,0.0,1.0,2.0,46.17,65.10115215638747,2.745985930307956
n-benzyl-n-methylnitrosoamine,CN(Cc1ccccc1)N=O,-1.5224,G1,1.7997999999999998,43.70400000000003,2.0,0.0,3.0,3.0,1.0,0.0,0.0,1.0,32.67,65.585989022959,2.5732138592946923
"2h-1-benzopyran-2-one, 4-bromo-",BrC1=CC(=O)Oc2ccccc12,-1.6533,G1,2.5555000000000003,50.18400000000001,2.0,0.0,3.0,0.0,2.0,0.0,0.0,2.0,30.21,76.94695418092634,2.9876120401947106
"2,3,4,5-tetrachloroanisole",COc1cc(Cl)c(Cl)c(Cl)c1Cl,-5.2605,G1,4.308800000000001,53.03400000000001,1.0,0.0,5.0,1.0,1.0,0.0,0.0,1.0,9.23,90.12295537092712,3.387046329011766
p-methylphenoxyacetic acid,Cc1ccc(OCC(O)=O)cc1,-2.1414,G1,1.4584199999999998,44.30980000000002,2.0,1.0,3.0,3.0,1.0,0.0,0.0,1.0,46.53,70.59553054443343,2.529889074289453
"benzene, 1,2,3,4-tetrachloro-5,6-dimethoxy-",COc1c(Cl)c(Cl)c(Cl)c(Cl)c1OC,-5.2394,G1,4.317400000000001,59.58600000000002,2.0,0.0,6.0,2.0,1.0,0.0,0.0,1.0,18.46,101.60144271483064,3.5656858355463434
cyolane,CCO[P](=O)(OCC)N=C1SCCS1,-2.5941,G1,3.0035000000000016,63.209500000000034,5.0,0.0,7.0,5.0,0.0,1.0,1.0,1.0,47.89,92.8108553483902,2.65940603076284
"phosphoramidic acid, (4-methyl-1,3-dithiolan-2-y",CCO[P](=O)(OCC)N=C1SCC(C)S1,-3.6744,G1,3.392000000000002,67.80450000000003,5.0,0.0,7.0,5.0,0.0,1.0,1.0,1.0,47.89,99.1757974627868,2.6860586746436788
medrogestone,CC(=O)C1(C)CCC2C3C=C(C)C4=CC(=O)CCC4(C)C3CCC12C,-5.2721,G3,5.279700000000005,100.02100000000006,2.0,0.0,2.0,1.0,0.0,2.0,4.0,4.0,34.14,151.68849106615704,1.7971692588605246
methylphosphonic acid,C[P](O)(O)=O,-0.6813,G1,-0.2061,17.968100000000003,1.0,2.0,4.0,0.0,0.0,0.0,0.0,0.0,57.53,29.790658948569437,3.472066495600119
"n,n-dimethylisopropylamine",CC(C)N(C)C,1.0597,G1,0.9564,28.822999999999983,1.0,0.0,1.0,1.0,0.0,0.0,0.0,0.0,3.24,39.95885315561935,2.993497243478473
"acetic acid, (nitrooxy)-, ethyl ester",CCOC(=O)CO[N+]([O-])=O,-1.7111,G1,-0.2421999999999997,29.579399999999996,5.0,0.0,6.0,4.0,0.0,0.0,0.0,0.0,78.66999999999999,56.82970415205467,3.3038725481541023
"glycine, n-(ethoxycarbonyl)-, ethyl ester",CCOC(=O)CNC(=O)OCC,-0.2435,G1,0.2955999999999999,41.65770000000001,4.0,1.0,5.0,4.0,0.0,0.0,0.0,0.0,64.63,71.02890055691852,3.402570682630092
2-hydroxypropyl acrylate,CC(O)COC(=O)C=C,0.8856,G1,0.0964,32.83679999999999,3.0,1.0,3.0,3.0,0.0,0.0,0.0,0.0,46.53,53.943659649374986,3.27250147237882
hydroxymethyl urea,NC(=O)NCO,-0.3463,G1,-1.3955000000000002,19.8049,2.0,3.0,4.0,1.0,0.0,0.0,0.0,0.0,75.35000000000001,34.94970187508669,2.8312571099313644
1-pentyl nitrate,CCCCCO[N+]([O-])=O,-2.568,G1,1.3849,32.47139999999999,3.0,0.0,4.0,5.0,0.0,0.0,0.0,0.0,52.37,53.91957893690064,2.828868134909685
"2,5-dimethyltetrahydrofuran",CC1CCC(C)O1,0.0723,G1,1.5738,29.242999999999984,1.0,0.0,1.0,0.0,0.0,1.0,1.0,1.0,9.23,44.67167567579023,2.2571532373031413
4-methyl-n-oxidepyridine,Cc1cc[n+]([O-])cc1,0.9621,G1,0.62842,30.138999999999992,1.0,0.0,2.0,0.0,1.0,0.0,0.0,1.0,26.94,47.9742369531094,3.0324555320336755
3-methyl-n-oxidepyridine,CC1=CC=C[NH++]([O-])[CH-]1,0.9621,G1,0.0044900000000003,31.52669999999999,1.0,0.0,2.0,0.0,0.0,0.0,1.0,1.0,30.46,48.687030303792206,2.594318453782886
desisopropylatrazine,CCNc1nc(N)nc(Cl)n1,-2.4135,G1,0.5389999999999999,43.4131,5.0,2.0,6.0,2.0,1.0,0.0,0.0,1.0,76.72,69.01325039863215,2.891802609680981
azacycloundecan-2-one,O=C1CCCCCCCCCN1,-1.8862,G1,2.237,49.94570000000003,1.0,1.0,2.0,0.0,0.0,1.0,1.0,1.0,29.1,74.72928318752162,2.1730987797541284
desmetryne,CNc1nc(NC(C)C)nc(SC)n1,-2.5656,G3,1.4555,59.91340000000002,6.0,2.0,6.0,4.0,1.0,0.0,0.0,1.0,62.73,88.13789202690086,2.9200182242358266
"1h-purine-2,6-dione, 7-butyl-3,7-dihydro-1,3-dim",CCCCn1cnc2N(C)C(=O)N(C)C(=O)c12,-1.8069,G1,0.2338,65.12300000000002,6.0,0.0,6.0,3.0,2.0,0.0,0.0,2.0,61.82,98.12378336133916,2.7663397915684915
"4h-3,1-benzoxazin-4-one, 2-phenyl",O=C1OC(=Nc2ccccc12)c3ccccc3,-4.6084,G1,2.8550000000000004,65.71500000000002,3.0,0.0,3.0,1.0,3.0,0.0,0.0,3.0,43.1,97.35614876229556,2.299992357076278
heptachlor epoxide,ClC1C2OC2C3C1C4(Cl)C(=C(Cl)C3(Cl)C4(Cl)Cl)Cl,-6.2893,G5,4.452700000000001,75.61900000000001,1.0,0.0,8.0,0.0,0.0,3.0,4.0,4.0,12.53,138.5472112287764,2.0104948353898764
"phosphonic diamide, p-(5-amino-3-phenyl-1h-1,2,4",CN(C)[P](=O)(N(C)C)n1nc(nc1N)c2ccccc2,-3.0709,G1,1.6066999999999994,80.24890000000003,5.0,1.0,8.0,4.0,2.0,0.0,0.0,2.0,80.28,118.09293328584174,2.547868209885534
"glycine, n-(2,4,6-trinitrophenyl)-",OC(=O)CNc1c(cc(cc1[N+]([O-])=O)[N+]([O-])=O)[N+]([O-])=O,-2.3922,G1,0.9077,62.53069999999998,8.0,2.0,12.0,6.0,1.0,0.0,0.0,1.0,178.75,108.6258325516374,3.5013825720592995
octyl gallate,CCCCCCCCOC(=O)c1cc(O)c(O)c(O)c1,-3.8945,G1,3.320700000000003,75.09490000000002,5.0,3.0,5.0,8.0,1.0,0.0,0.0,1.0,86.99000000000001,118.37365073520516,2.3277387125884665
dimethylsilanediol,C[Si](C)(O)O,1.0354,G1,-0.3272,21.9196,2.0,2.0,3.0,0.0,0.0,0.0,0.0,0.0,40.46,32.3203049498118,3.0237157840738176
di-n-butyl tin diacetate,CCCC[Sn++]CCCC.CC([O-])=O.CC([O-])=O,-4.7672,G1,0.6397999999999997,66.54600000000005,4.0,0.0,5.0,6.0,0.0,0.0,0.0,0.0,80.25999999999999,115.0217903722054,-2.0461537998720426e-07
glyphosphate,OC(=O)CNC[P](O)(O)=O,-1.2069,G1,-1.2042,32.54959999999999,3.0,4.0,7.0,4.0,0.0,0.0,0.0,0.0,106.86,57.02616121321046,3.386337639688872
"1,3,4-thiadiazolidine-2,5-dithione",S=C1NNC(=S)S1,-0.7552,G1,1.86328,34.688399999999994,3.0,2.0,5.0,0.0,1.0,0.0,0.0,1.0,31.58,54.19707641461596,3.5924568113957625
1-bromo-2-fluorobenzene,Fc1ccccc1Br,-2.6958,G1,2.5882000000000005,34.1,0.0,0.0,2.0,0.0,1.0,0.0,0.0,1.0,0.0,55.46448612806456,3.134861511345448
"1h-pyrazol-4-ol, 1-phenyl-",Oc1cnn(c1)c2ccccc2,-1.9616,G1,1.5779,45.22880000000002,3.0,1.0,3.0,1.0,2.0,0.0,0.0,2.0,38.05,69.88996453471786,2.4450102492957595
1-phenylheptane,CCCCCCCc1ccccc1,-5.5959,G1,4.199500000000003,58.90500000000005,0.0,0.0,0.0,6.0,1.0,0.0,0.0,1.0,0.0,81.98599792027323,2.0653801840299586
hexyl p-hydroxybenzoate,CCCCCCOC(=O)c1ccc(O)cc1,-3.949,G1,3.129300000000001,62.53130000000005,3.0,1.0,3.0,6.0,1.0,0.0,0.0,1.0,46.53,96.0552990020199,2.2702939313664987
heptyl p-hydroxybenzoate,CCCCCCCOC(=O)c1ccc(O)cc1,-4.0725,G1,3.5194000000000027,67.14830000000005,3.0,1.0,3.0,7.0,1.0,0.0,0.0,1.0,46.53,102.4202411164165,2.1877833988335254
dichlofluanid,CN(C)[S](=O)(=O)N(SC(F)(Cl)Cl)c1ccccc1,-5.4088,G1,3.006000000000001,74.66380000000002,3.0,0.0,9.0,5.0,1.0,0.0,0.0,1.0,40.620000000000005,119.97260559882044,3.205352782298732
prednisolone 21-trimethylacetate,CC(C)(C)C(=O)OCC(=O)C1(O)CCC2C3CCC4=CC(=O)C=CC4(C)C3C(O)CC12C,-4.5835,G1,3.154600000000001,118.37660000000008,6.0,2.0,6.0,3.0,0.0,3.0,4.0,4.0,100.90000000000002,189.64685224328952,1.5965291070991952
dimethoxon,CNC(=O)CS[P](=O)(OC)OC,0.6712,G1,0.8664999999999998,48.14920000000002,5.0,1.0,7.0,5.0,0.0,0.0,0.0,0.0,64.63000000000001,75.47212929291317,3.89250063709835
"dl-methionine, n-acetyl-",CSCC[C@@H](NC(C)=O)C([O-])=O,-0.3216,G1,-1.0058999999999994,45.61070000000002,4.0,1.0,5.0,5.0,0.0,0.0,0.0,0.0,69.22999999999999,75.71915387546603,3.86542455318872
"heptanoic acid, 2-amino-, (.+-.)-",CCCCCC(N)C(O)=O,-0.94,G1,0.9786,39.75319999999999,2.0,2.0,3.0,5.0,0.0,0.0,0.0,0.0,63.32,61.22455026346168,3.2148768968244483
n-nitrosodiethanolamine,OCCN(CCO)N=O,0.8724,G1,-1.0456,31.53959999999999,4.0,2.0,5.0,5.0,0.0,0.0,0.0,0.0,73.13,52.84724655008021,3.285299824207474
tri(n-octyl)amine,CCCCCCCCN(CCCCCCCC)CCCCCCCC,-6.8496,G1,8.369900000000007,116.56800000000013,1.0,0.0,1.0,21.0,0.0,0.0,0.0,0.0,3.24,160.8927533291549,3.760771658852694
"urea, (1,1-dimethylethyl)-",CC(C)(C)NC(N)=O,-0.7306,G1,0.4532000000000002,32.47209999999999,1.0,2.0,3.0,0.0,0.0,0.0,0.0,0.0,55.12,49.2502944660805,3.5512529243669317
"1,3-disiloxanediol, 1,1,3,3-tetramethyl-",C[Si](C)(O)O[Si](C)(C)O,-0.1796,G1,0.3911999999999998,40.48660000000001,3.0,2.0,5.0,2.0,0.0,0.0,0.0,0.0,49.69,57.7913787113055,3.746417931251032
"pentanedioic acid, dimethyl ester",COC(=O)CCCC(=O)OC,-0.4337,G3,0.5026999999999999,37.883,4.0,0.0,4.0,4.0,0.0,0.0,0.0,0.0,52.60000000000001,65.47903837331049,3.270375394587324
2-heptyne,CCCCC#CC,-2.7695,G1,2.1999000000000004,32.97499999999999,0.0,0.0,0.0,2.0,0.0,0.0,0.0,0.0,0.0,45.92812910606846,2.7823276365211047
n-undecane,CCCCCCCCCCC,-7.5505,G1,4.537100000000004,52.90100000000004,0.0,0.0,0.0,8.0,0.0,0.0,0.0,0.0,0.0,72.38867217179563,2.6909155266923976
"2,4,5-trimethylpyridine",Cc1cc(C)c(C)cn1,-0.7824,G1,2.00686,38.44800000000001,1.0,0.0,1.0,0.0,1.0,0.0,0.0,1.0,12.89,55.7458774436333,3.171678030440916
4-dimethylaminopyridine,CN(C)c1cc[nH+]cc1,-0.2062,G1,0.5667,37.3247,1.0,0.0,2.0,1.0,1.0,0.0,0.0,1.0,17.380000000000003,55.14076899944006,2.848234050597751
"pyridine, 2-ethyl-6-methyl-",CCc1cccc(C)n1,-0.8234,G1,1.95242,38.35200000000001,1.0,0.0,1.0,1.0,1.0,0.0,0.0,1.0,12.89,55.7458774436333,2.9368661023365914
1-hydroxy-cyclohexanecarboxylic acid,OC(=O)C1(O)CCCCC1,-0.3328,G1,0.7662,35.6706,2.0,2.0,3.0,1.0,0.0,1.0,1.0,1.0,57.53,59.67306216511577,2.5632261085598094
"phenol, 4-chloro-2,6-dimethyl-",Cc1cc(Cl)cc(C)c1O,-1.6763,G1,2.662440000000001,42.59080000000002,1.0,1.0,2.0,0.0,1.0,0.0,0.0,1.0,20.23,65.25878732736787,3.3105328747224068
"pteridine, 7-chloro-",Clc1cnc2cncnc2n1,-0.8749,G1,1.0731999999999997,40.138000000000005,4.0,0.0,5.0,0.0,2.0,0.0,0.0,2.0,51.56,67.2949258018999,2.828901215620696
"1,2-benzenediol, 4-(2-propenyl)-",Oc1ccc(CC=C)cc1O,-0.7787,G1,1.8263,43.67260000000002,2.0,2.0,2.0,2.0,1.0,0.0,0.0,1.0,40.46,65.42509393489455,2.9473707295369223
"1h-pyrazol-5-amine, 3-methyl-1-phenyl-",Cc1cc(N)n(n1)c2ccccc2,-0.9376,G1,1.7629199999999998,52.713400000000014,3.0,1.0,3.0,1.0,2.0,0.0,0.0,2.0,43.84,76.80056359393117,2.52646374475782
p-cyclohexylphenol,Oc1ccc(cc1)C2CCCCC2,-3.468,G3,3.439900000000001,53.93280000000004,1.0,1.0,1.0,1.0,1.0,1.0,1.0,2.0,20.23,79.40945840454341,2.100180418908758
cycloate,CCSC(=O)N(CC)C1CCCCC1,-3.4037,G1,3.5141000000000027,62.78100000000004,2.0,0.0,3.0,3.0,0.0,1.0,1.0,1.0,20.31,91.4273068138788,2.4593312217351424
diphenyltin dichloride,Cl[Sn](Cl)(c1ccccc1)c2ccccc2,-3.8373,G1,2.720600000000001,69.61200000000002,0.0,0.0,3.0,2.0,2.0,0.0,0.0,2.0,0.0,101.14930877372448,2.442186510719565
1-butyl theobromine,CCCCN1C(=O)N(C)c2ncn(C)c2C1=O,-1.6252,G1,0.2337999999999997,65.12300000000003,6.0,0.0,6.0,3.0,2.0,0.0,0.0,2.0,61.82,98.12378336133916,2.8009931819001164
tolazamide,Cc1ccc(cc1)[S](=O)(=O)NC(=O)NN2CCCCCC2,-3.6778,G1,1.77392,80.07320000000004,4.0,2.0,7.0,3.0,1.0,1.0,1.0,2.0,78.50999999999999,125.0971009312539,1.9555505102862112
peruvoside,COC1[C@H](O)C(C)O[C@H](O[C@H]2CC[C@@]3(C=O)[C@H](CCC4C3CC[C@]5(C)[C@H](CC[C@]45O)C6=CC(=O)OC6)C2)C1O,-3.1373,G1,2.2892,138.12740000000002,9.0,3.0,9.0,5.0,0.0,5.0,6.0,6.0,131.75000000000003,229.7579087666746,1.1836244795233528
"butanedioic acid, 2,3-diethyl-",CCC(C(CC)C(O)=O)C(O)=O,-0.8608,G3,1.208,42.8336,2.0,2.0,4.0,5.0,0.0,0.0,0.0,0.0,74.6,71.20535753308536,4.437883201238692
3-hydroxy-aspartic acid,N[C@@H]([C@@H](O)C(O)=O)C(O)=O,-0.8271,G1,-2.156200000000001,29.2538,4.0,4.0,6.0,3.0,0.0,0.0,0.0,0.0,120.85000000000002,55.87971352470765,4.069511908932011
"urea, tetraethyl-",CCN(CC)C(=O)N(CC)CC,-0.6341,G1,1.79,51.23800000000004,1.0,0.0,3.0,4.0,0.0,0.0,0.0,0.0,23.550000000000004,75.33997738345292,4.12243352441181
"l-leucine, n-acetyl-",CC(C)C[C@H](NC(C)=O)C(O)=O,-1.3301,G1,0.6218000000000001,44.69550000000001,2.0,2.0,4.0,4.0,0.0,0.0,0.0,0.0,66.4,71.9609859644974,4.044711483745026
"2,5-dihydroxybenzaldehyde",Oc1ccc(O)c(C=O)c1,-1.0004,G1,0.9103,35.1591,3.0,2.0,3.0,1.0,1.0,0.0,0.0,1.0,57.53,57.54633483832936,3.211310929132047
tranexamic acid,NCC1CCC(CC1)C(O)=O,0.0255,G1,0.8361000000000001,42.13820000000001,2.0,2.0,3.0,2.0,0.0,1.0,1.0,1.0,63.32,66.58366122432906,2.297820229194632
"2,4-dimethylquinoline",Cc1cc(C)c2ccccc2n1,-1.9424,G1,2.8516400000000006,51.21700000000003,1.0,0.0,1.0,0.0,2.0,0.0,0.0,2.0,12.89,72.06259986097189,2.892065045173516
"dl-alanine, n-benzoyl-",CC(NC(=O)c1ccccc1)C(O)=O,-1.6839,G1,0.8895,51.00600000000002,2.0,2.0,4.0,3.0,1.0,0.0,0.0,1.0,66.4,81.558311712975,2.641954104458228
methyl n-benzoglycine,COC(=O)CNC(=O)c1ccccc1,-1.0556,G1,0.5893999999999995,50.791200000000025,3.0,1.0,4.0,3.0,1.0,0.0,0.0,1.0,55.4,81.87762319028586,2.4770888710720005
"10h-phenothiazine, 10-methyl-",CN1c2ccccc2Sc3ccccc13,-5.5934,G1,3.919100000000002,65.07000000000004,2.0,0.0,2.0,0.0,2.0,0.0,1.0,3.0,3.24,93.730551981997,2.19639342717164
"benzoic acid, 4-hydroxy, octyl ester",CCCCCCCCOC(=O)c1ccc(O)cc1,-4.2224,G1,3.909500000000003,71.76530000000004,3.0,1.0,3.0,8.0,1.0,0.0,0.0,1.0,46.53,108.78518323081312,2.117836776279736
galaxolide,CC1COCc2cc3c(cc12)C(C)(C)C(C)C3(C)C,-5.1693,G5,4.525200000000004,79.72900000000006,1.0,0.0,1.0,0.0,1.0,0.0,2.0,3.0,9.23,116.91259141470466,2.2452818094358897
homidium bromide [ban:inn],[Br-].CC[n+]1c2cc(N)ccc2c3ccc(N)cc3c1c4ccccc4,-1.2948,G1,1.1358000000000017,101.5838,2.0,2.0,4.0,2.0,4.0,0.0,0.0,4.0,55.92,157.20381359183935,1.8224987868008395e-06
2-ethylhexyl diphenyl phosphate,CCCCC(CC)CO[P](=O)(Oc1ccccc1)Oc2ccccc2,-5.2804,G2,6.485500000000006,101.00450000000006,4.0,0.0,5.0,11.0,2.0,0.0,0.0,2.0,44.760000000000005,150.29828060372955,2.0892706475281493
"3h-pyrazol-3-one, 4,4'-methylenebis[1,2-dihydro-",CN1N(C(=O)C(=C1C)CC2=C(C)N(C)N(C2=O)c3ccccc3)c4ccccc4,-2.9549,G1,2.8730400000000014,114.3,6.0,0.0,6.0,4.0,4.0,0.0,0.0,4.0,53.86,168.384850396872,1.8485140835570288
carminic acid,Cc1c(C(O)=O)c(O)cc2C(=O)c3c(O)c(O)c([C@H]4O[C@H](CO)[C@@H](O)[C@H](O)[C@H]4O)c(O)c3C(=O)c12,-2.5784,G1,-1.1940800000000005,110.82470000000002,12.0,9.0,13.0,3.0,2.0,1.0,2.0,4.0,242.51,194.87247146187087,1.9883907889748256
tetramethyl decynediol,CC(C)C(C)C(C)C(O)C#CC(C)C(C)O,-2.2756,G1,2.2958000000000003,67.79360000000004,2.0,2.0,2.0,4.0,0.0,0.0,0.0,0.0,40.46,100.07119141123673,4.397963466161539
carmine,Cc1c(C(O)=O)c(O)cc2C(=O)c3c(O)c(O)c(C4OC(CO)C(O)C(O)C4O)c(O)c3C(=O)c12,-2.5784,G1,-1.1940800000000005,110.82470000000002,12.0,9.0,13.0,3.0,2.0,1.0,2.0,4.0,242.51,194.87247146187087,1.9883907889748256
aloin,OC[C@H]1O[C@H]([C@H](O)[C@@H](O)[C@@H]1O)[C@@H]2c3cccc(O)c3C(=O)c4c(O)cc(CO)cc24,-1.7025,G1,-0.8912000000000002,101.1791,9.0,7.0,9.0,3.0,2.0,1.0,2.0,4.0,167.91,170.59601764299475,1.9598885325931952
niclosamide ethanolamine salt,NCCO.Oc1ccc(Cl)cc1C(=O)Nc2ccc(cc2Cl)[N+]([O-])=O,-3.5891,G1,2.796900000000001,95.31660000000002,6.0,4.0,10.0,4.0,2.0,0.0,0.0,2.0,138.72000000000003,152.48840548359976,7.053570175180047e-07
trifenmorph,C1CN(CCO1)C(c2ccccc2)(c3ccccc3)c4ccccc4,-7.2168,G1,4.310700000000003,101.60000000000004,2.0,0.0,2.0,4.0,3.0,1.0,1.0,4.0,12.47,149.2378498497891,2.0059566373644846
dinoterb,CC(C)(C)c1cc(cc(c1O)[N+]([O-])=O)[N+]([O-])=O,-4.7274,G1,2.506100000000002,60.115600000000015,5.0,1.0,7.0,2.0,1.0,0.0,0.0,1.0,106.51,96.99135677427898,3.604925771725336
4-(4-nitrophenylazo)phenol,[O-][N+](=O)c1ccc(NN=C2C=CC(=O)C=C2)cc1,-4.796,G1,2.0578,67.4411,5.0,1.0,6.0,3.0,1.0,0.0,1.0,2.0,84.6,102.4658371002256,2.0435102088391304
2-pyridinecarboxamide,NC(=O)c1ccccn1,0.1685,G1,0.1804999999999999,32.7549,2.0,1.0,3.0,1.0,1.0,0.0,0.0,1.0,55.98,52.51740601189657,2.981454614041131
heptadecyl alcohol,CCCCCCCCCCCCCCCCCO,-7.506,G1,5.850100000000007,82.01480000000006,1.0,1.0,1.0,15.0,0.0,0.0,0.0,0.0,20.23,115.37255861037131,2.862306209193584
"2,6-dimethyl-n-nitrosomorpholine",CC1CN(CC(C)O1)N=O,-0.0655,G1,0.7769999999999999,37.37700000000001,3.0,0.0,4.0,1.0,0.0,1.0,1.0,1.0,41.9,60.096377350459065,2.417613433147248
"pyridine, 2,3,6-trimethyl-",Cc1ccc(C)c(C)n1,-0.5893,G1,2.00686,38.44800000000001,1.0,0.0,1.0,0.0,1.0,0.0,0.0,1.0,12.89,55.7458774436333,3.171678030440916
5-indanol,Oc1ccc2CCCc2c1,-1.3285,G1,1.8809,40.13180000000001,1.0,1.0,1.0,0.0,1.0,0.0,1.0,2.0,20.23,60.31463206135357,2.522624862611356
"1,4-dichloro-2-butene(cis)",ClC\C=C/CCl,-2.3333,G1,2.0202,30.57999999999999,0.0,0.0,2.0,2.0,0.0,0.0,0.0,0.0,0.0,47.75100679259846,2.734385993561548
"piperidine, 3-ethyl-,",CC[C@@H]1CCCCN1,-0.3463,G1,1.5385,35.93269999999999,1.0,1.0,1.0,1.0,0.0,1.0,1.0,1.0,12.03,51.47293474428802,2.125016255414672
"cyclohexanone, 2-(1-cyclohexen-1-yl)-",O=C1CCCCC1C2=CCCCC2,-2.774,G1,3.246100000000002,53.516000000000034,1.0,0.0,1.0,1.0,0.0,1.0,2.0,2.0,17.07,80.21387104699329,2.043952341045132
2-(acetyloxy)-4-bromo-benzoic acid,CC(=O)Oc1ccc(Br)cc1C(O)=O,-2.5895,G1,2.0726,52.41030000000001,3.0,1.0,5.0,2.0,1.0,0.0,0.0,1.0,63.6,88.62460025011859,3.1445946425258846
"n,n-diethyl succinamic acid",CCN(CC)C(=O)CCC(O)=O,-0.7937,G1,0.7195999999999998,44.79780000000002,2.0,1.0,4.0,5.0,0.0,0.0,0.0,0.0,57.61000000000001,72.17095745109273,3.7662844846674624
"urea, (4-methoxyphenyl)-",COc1ccc(NC(N)=O)cc1,-1.5917,G1,1.1857999999999995,46.200100000000006,2.0,2.0,4.0,2.0,1.0,0.0,0.0,1.0,64.35,70.32610755846159,2.709147824373649
4-methoxy-2-nitrophenol,COc1ccc(O)c(c1)[N+]([O-])=O,-2.8409,G1,1.3089999999999995,41.313200000000016,4.0,1.0,5.0,2.0,1.0,0.0,0.0,1.0,72.6,68.35709993809625,3.167265777748714
1-propoxy-2-propanol,CCCOCC(C)O,0.9275,G1,0.7938000000000001,32.79079999999998,2.0,1.0,2.0,4.0,0.0,0.0,0.0,0.0,29.46,50.47174058151548,2.7158427612932585
3-penten-2-ol,C/C=C/C(C)O,0.0152,G1,0.9433,26.494799999999987,1.0,1.0,1.0,1.0,0.0,0.0,0.0,0.0,20.23,38.303650205427736,3.032354946742984
2-methyl-4-chlorophenol,Cc1cc(Cl)ccc1O,-1.5519999999999998,G3,2.3540200000000007,37.853800000000014,1.0,1.0,2.0,0.0,1.0,0.0,0.0,1.0,20.23,58.89384521297126,3.171678030440916
"4,6-dichloro-o-cresol",Cc1cc(Cl)cc(Cl)c1O,-2.0439,G1,3.00742,42.86380000000002,1.0,1.0,3.0,0.0,1.0,0.0,0.0,1.0,20.23,69.19711143985293,3.3105328747224068
"benzamide, 3-(aminosulfonyl)-",NC(=O)c1cccc(c1)[S](N)(=O)=O,-2.1554,G1,-0.5670999999999999,46.33310000000001,3.0,2.0,6.0,2.0,1.0,0.0,0.0,1.0,103.25,75.39842462037784,3.291324672397669
"2-propenoic acid, 3,3-dibromo-",OC(=O)C=C(Br)Br,-0.8358,G1,1.7022000000000002,33.5728,1.0,1.0,4.0,1.0,0.0,0.0,0.0,0.0,37.3,57.470383287961006,3.679228031962392
"urea, n,n''-ethylidenebis-",CC(NC(N)=O)NC(N)=O,-0.5916,G1,-1.3309999999999995,34.90019999999999,2.0,4.0,6.0,2.0,0.0,0.0,0.0,0.0,110.23999999999998,57.93662733234842,3.5301764091449277
"hydrazinecarboxamide, 2-cyclohexylidene-",NC(=O)NN=C1CCCCC1,-1.4127,G1,0.9748,43.23910000000002,2.0,2.0,4.0,1.0,0.0,1.0,1.0,1.0,67.48,65.83980604743961,2.3153782267233938
"2-naphthalenebutanoic acid, .gamma.-oxo-",OC(=O)CCC(=O)c1ccc2ccccc2c1,-3.8533,G1,2.887300000000001,65.14830000000003,2.0,1.0,3.0,4.0,2.0,0.0,0.0,2.0,54.37,98.69011406110216,2.2368819089594187