Name,SMILES,Solubility,Group,MolLogP,MolMR,NumHAcceptors,NumHDonors,NumHeteroatoms,NumRotatableBonds,NumAromaticRings,NumSaturatedRings,NumAliphaticRings,RingCount,TPSA,LabuteASA,BalabanJ
"2,2,6,6-tetramethyl-N-{6-[(2,2,6,6-tetramethylpiperidin-4-yl)amino]hexyl}piperidin-4-amine",CC1(C)CC(CC(C)(C)N1)NCCCCCCNC2CC(C)(C)NC(C)(C)C2,-2.350745656,G1,4.344400000000003,123.1048000000001,4.0,4.0,4.0,9.0,0.0,2.0,2.0,2.0,48.12,175.3207060863253,1.5315033197239385
"2,4,7,9-tetramethyldec-5-yne-4,7-diol",CC(C)CC(C)(O)C#CC(C)(O)CC(C)C,-2.1243507639,G1,2.5840000000000005,67.93360000000006,2.0,2.0,2.0,4.0,0.0,0.0,0.0,0.0,40.46,100.07119141123674,4.571752871794463
butyl prop-2-enoate,CCCCOC(=O)C=C,-1.8773408513,G5,1.5157,36.06399999999999,2.0,0.0,2.0,4.0,0.0,0.0,0.0,0.0,26.3,55.514368011575584,3.0655033793880806
4-(butoxymethyl)-2-methoxyphenol,CCCCOCc1ccc(O)c(OC)c1,-2.0948968063,G3,2.717500000000001,59.22280000000005,3.0,1.0,3.0,6.0,1.0,0.0,0.0,1.0,38.69,90.64238001708638,2.4713577775816344
"2,5-dichloroanilinium chloride",[H+].[Cl-].Nc1cc(Cl)ccc1Cl,-2.0750002801,G1,-0.3078999999999996,41.9864,1.0,1.0,4.0,0.0,1.0,0.0,0.0,1.0,26.02,77.01571789231797,0.0
"2-(2-amino-1,3-thiazol-4-yl)acetic acid",Nc1scc(CC(O)=O)n1,-1.9816731181,G1,0.3524,37.866200000000006,4.0,2.0,5.0,2.0,1.0,0.0,0.0,1.0,76.21000000000001,61.31694514890067,2.6688118501601634
"1'-(phenylmethyl)-[1,4'-bipiperidine]-4'-carbonitrile",N#CC1(CC[NH+](CC1)Cc2ccccc2)[NH+]3CCCCC3,-2.2459922106,G1,0.1964800000000008,82.96840000000006,1.0,2.0,3.0,3.0,1.0,2.0,2.0,3.0,32.67,127.7112932070733,1.5902121084907204
3-(diethylamino)phenol,CCN(CC)c1cccc(O)c1,-2.0112787971,G3,2.2384000000000004,51.66780000000004,2.0,1.0,2.0,3.0,1.0,0.0,0.0,1.0,23.47,73.44523899948278,2.853599600301738
"2,3-bis(nitrooxy)propyl nitrate",[O-][N+](=O)OCC(CO[N+]([O-])=O)O[N+]([O-])=O,-2.1520684654,G5,-1.0200999999999996,37.76020000000002,9.0,0.0,12.0,8.0,0.0,0.0,0.0,0.0,157.11,80.63081361107673,3.9922055468289934
methyl 2-[(1E)-cyclopentylidene]acetate,COC(=O)C=C1CCCC1,-1.9425722692,G3,1.6598,38.56700000000001,2.0,0.0,2.0,1.0,0.0,1.0,1.0,1.0,26.3,60.87347897244297,2.4451847610018858
diphenyl methylphosphonate,C[P](=O)(Oc1ccccc1)Oc2ccccc2,-2.2017086736,G1,3.9673000000000025,67.67050000000005,3.0,0.0,4.0,4.0,2.0,0.0,0.0,2.0,35.53,100.54347031531924,2.074980322707233
fluorobenzene,Fc1ccccc1,-1.7924097659,G1,1.8257,26.399999999999995,0.0,0.0,1.0,0.0,1.0,0.0,0.0,1.0,0.0,41.5969385224232,3.0214653097240864
sodium heptadecyl sulfate,[Na+].CCCCCCCCCCCCCCCCCO[S]([O-])(=O)=O,-2.3669926669,G1,2.3386,90.57820000000008,4.0,0.0,6.0,17.0,0.0,0.0,0.0,0.0,66.43,165.94290959649285,0.0
"2,2-difluoroethanamine",NCC(F)F,0.5225303771,G3,0.2101999999999999,15.058400000000002,1.0,1.0,3.0,1.0,0.0,0.0,0.0,0.0,26.02,28.77515464509134,2.5395388613593908
"[(2R,3R,4S,5R,6R)-3,4,5,6-tetrakis(acetyloxy)oxan-2-yl]methyl acetate",CC(=O)OCC1OC(OC(C)=O)C(OC(C)=O)C(OC(C)=O)C1OC(C)=O,-2.4153529113,G3,-0.3673999999999986,83.72200000000004,11.0,0.0,11.0,6.0,0.0,1.0,1.0,1.0,140.73000000000002,154.6964334675096,3.285482321670223
"2,2-dimethyl-3-phenylpropan-1-ol",CC(C)(CO)Cc1ccccc1,-2.0423138216,G1,2.2476000000000003,51.01280000000004,1.0,1.0,1.0,3.0,1.0,0.0,0.0,1.0,20.23,74.05034744367602,2.64124625557133
2-phenyloxirane,C1OC1c2ccccc2,-1.9065411213,G3,1.7579,35.135000000000005,1.0,0.0,1.0,1.0,1.0,1.0,1.0,2.0,12.53,54.26900142426783,2.2860713078743733
"tert-butyl 2,2-dimethylpropaneperoxoate",CC(C)(C)OOC(=O)C(C)(C)C,-2.067961594,G1,2.3058000000000005,46.385000000000026,3.0,0.0,3.0,1.0,0.0,0.0,0.0,0.0,35.53,73.97669581779822,3.895440562837822
tetraethyl silicate,CCO[Si](OCC)(OCC)OCC,-2.1455655454,G1,1.568,52.258000000000045,4.0,0.0,5.0,8.0,0.0,0.0,0.0,0.0,36.92,81.62232810764343,4.1856116450973095
3-methyl-2-[(2E)-pent-2-en-1-yl]cyclopent-2-en-1-one,CC\C=C/CC1=C(C)CCC1=O,-2.0452383746,G1,3.022100000000002,50.98900000000003,1.0,0.0,1.0,3.0,0.0,0.0,1.0,1.0,17.07,74.16515705394167,2.554213747074808
2-chlorobenzaldehyde,Clc1ccccc1C=O,-1.9805722205,G3,2.1525,36.839500000000015,1.0,0.0,2.0,1.0,1.0,0.0,0.0,1.0,17.07,58.261133560819005,3.1479791300397526
2-(butan-2-yl)phenol,CCC(C)c1ccccc1O,-2.0123777929,G1,2.9057000000000017,46.81280000000004,1.0,1.0,1.0,2.0,1.0,0.0,0.0,1.0,20.23,67.6854053292794,2.9338523057637267
"2,2'-(octylimino)diethanol",CCCCCCCCN(CCO)CCO,-2.1910376032,G1,1.6335,63.98760000000006,3.0,2.0,3.0,11.0,0.0,0.0,0.0,0.0,43.7,94.10191546078764,3.2782714590520383
5-nitroisophthalic acid,OC(=O)c1cc(cc(c1)[N+]([O-])=O)C(O)=O,-2.178419855,G3,0.9912,47.015,4.0,2.0,7.0,3.0,1.0,0.0,0.0,1.0,117.74,82.72577477526956,3.387380075453351
ethyl [(4-methylphenyl)sulfonyl]carbamate,CCOC(=O)N[S](=O)(=O)c1ccc(C)cc1,-2.2430987475,G1,1.42982,58.52250000000003,4.0,1.0,6.0,3.0,1.0,0.0,0.0,1.0,72.47,94.47687698265716,2.8594454295085026
calcium bis(2-methyloctanoate),[Ca++].CCCCCCCCC([O-])=O.CCCCCCCCC([O-])=O,-2.412949573,G2,2.593000000000001,91.75400000000006,4.0,0.0,5.0,14.0,0.0,0.0,0.0,0.0,80.25999999999999,171.9763778258049,-3.333333232847225e-07
(diethoxymethoxy)ethane,CCOC(OCC)OCC,-2.040520296,G1,1.3795,38.666,3.0,0.0,3.0,6.0,0.0,0.0,0.0,0.0,27.69,62.26953940272983,3.2950821163049606
lithium(1+) ion fluoride,[Li+].[F-],-1.2901015882,G5,-5.992,0.0,0.0,0.0,2.0,0.0,0.0,0.0,0.0,0.0,0.0,24.39470625023717,0.0
"N,N-dimethylnonanamide",CCCCCCCCC(=O)N(C)C,-2.1440495587,G1,2.825200000000001,56.68700000000005,1.0,0.0,2.0,7.0,0.0,0.0,0.0,0.0,20.31,82.31002794204277,3.116343856585805
1-isocyanato-4-(4-isocyanato-3-methylphenyl)-2-methylbenzene,Cc1cc(ccc1N=C=O)c2ccc(N=C=O)c(C)c2,-2.308127519,G1,3.905040000000003,76.91500000000003,4.0,0.0,4.0,3.0,2.0,0.0,0.0,2.0,58.86,116.0619549549552,2.4641979101335063
4-phenylbut-3-en-2-one,CC(=O)\C=C\c1ccccc1,-2.050971343,G1,2.2888,46.157000000000025,1.0,0.0,1.0,2.0,1.0,0.0,0.0,1.0,17.07,66.3630906449429,2.7217735540687813
"5-(4-hydroxyphenyl)imidazolidine-2,4-dione",Oc1ccc(cc1)C2NC(=O)NC2=O,-2.1731049195,G1,0.2726999999999998,47.522200000000005,3.0,3.0,5.0,1.0,1.0,1.0,1.0,2.0,78.43,79.7374006286572,2.272284319146098
sodium 2-(dodecanoyloxy)ethanesulfonate,[Na+].CCCCCCCCCCCC(=O)OCC[S]([O-])(=O)=O,-2.4084792453,G1,-0.0002999999999986,77.36720000000005,5.0,0.0,7.0,13.0,0.0,0.0,0.0,0.0,83.5,150.80060147728875,0.0
2-[(4-amino-2-nitrophenyl)amino]ethan-1-ol,Nc1ccc(NCCO)c(c1)[N+]([O-])=O,-2.1910899756,G1,0.5811999999999999,53.084300000000006,5.0,3.0,6.0,4.0,1.0,0.0,0.0,1.0,101.42,80.49824970360673,2.96038258803094
4-methyl-4-phenylpentan-2-ol,CC(O)CC(C)(C)c1ccccc1,-2.1472867242,G1,2.735100000000001,55.76580000000005,1.0,1.0,1.0,3.0,1.0,0.0,0.0,1.0,20.23,80.41528955807264,2.810733935725913
naphthalen-1-ol,Oc1cccc2ccccc12,-2.0619739225,G5,2.5454000000000008,45.61280000000003,1.0,1.0,1.0,0.0,2.0,0.0,0.0,2.0,20.23,64.90730140342818,2.9131611636048604
"2,3-dichloroaniline",Nc1cccc(Cl)c1Cl,-2.1303847013,G1,2.575600000000001,40.8744,1.0,1.0,3.0,0.0,1.0,0.0,0.0,1.0,26.02,63.37782627027303,3.2478347337367026
5-chloro-2-methylaniline,Cc1ccc(Cl)cc1N,-2.0718850743,G1,2.23062,40.60140000000001,1.0,1.0,2.0,0.0,1.0,0.0,0.0,1.0,26.02,59.43950215778796,3.171678030440915
N-acetyl-N-[2-(N-acetylacetamido)ethyl]acetamide,CC(=O)N(CCN(C(C)=O)C(C)=O)C(C)=O,-2.2792257347,G2,-0.2236,56.13600000000003,4.0,0.0,6.0,3.0,0.0,0.0,0.0,0.0,74.76,94.18948579798082,4.498226862253694
"[9-methyl-6-(propan-2-yl)-1,4-dioxaspiro[4.5]decan-2-yl]methanol",CC(C)C1CCC(C)CC12OCC(CO)O2,-2.2793855347,G1,2.1826000000000003,61.98480000000006,3.0,1.0,3.0,2.0,0.0,2.0,2.0,2.0,38.69,98.12821830474016,2.134117910768903
ethyl 2-phenylacetate,CCOC(=O)Cc1ccccc1,-2.1362024863,G1,1.7922,46.77900000000003,2.0,0.0,2.0,3.0,1.0,0.0,0.0,1.0,26.3,72.16623890663404,2.471665960685077
nitrogen oxide,[N-]=[N+]=O,-1.5643997258000002,G1,-0.1584,8.86,1.0,0.0,3.0,0.0,0.0,0.0,0.0,0.0,53.470000000000006,16.755985071949137,3.2659863237109046
2-butyl-4-chloro-1H-imidazole-5-carbaldehyde,CCCCc1[nH]c(Cl)c(C=O)n1,-2.1991273723,G1,2.2182000000000004,47.597200000000015,2.0,1.0,4.0,4.0,1.0,0.0,0.0,1.0,45.75,76.14971042036626,2.680316353319505
(3Z)-hex-3-en-1-yl acetate,CC\C=C/CCOC(C)=O,-2.111500803,G3,1.9058,40.68100000000001,2.0,0.0,2.0,4.0,0.0,0.0,0.0,0.0,26.3,61.87931012597219,3.047630004121517
"1-butyl-6-hydroxy-4-methyl-2-oxo-1,2-dihydropyridine-3-carbonitrile",CCCCN1C(=O)C=C(C)C(=C1O)C#N,-2.2729907436000003,G1,1.5340999999999998,56.72680000000003,4.0,1.0,4.0,3.0,1.0,0.0,0.0,1.0,66.02000000000001,88.39901080712694,3.2792780439056823
2-methoxy-4-propylphenol,CCCc1ccc(O)c(OC)c1,-2.1792905928,G1,2.3533,48.65380000000003,2.0,1.0,2.0,3.0,1.0,0.0,0.0,1.0,29.46,72.79895055878629,2.8886510104905314
"3,4-dichlorobut-1-ene",ClCC(Cl)C=C,-2.0555103791,G5,2.0186,30.557999999999986,0.0,0.0,2.0,2.0,0.0,0.0,0.0,0.0,0.0,47.75100679259846,2.964900494759057
trilithium(1+) ion hexafluoroalumanetriuide,[Li+].[Li+].[Li+].[F-].[F-].[F-].[F-].[F-].[F-].[Al+3],-2.1675670427,G1,-27.3448,5.754,0.0,0.0,10.0,0.0,0.0,0.0,0.0,0.0,0.0,101.50666511609388,-0.0
1-octylpyrrolidin-2-one,CCCCCCCCN1CCCC1=O,-2.2577490108,G5,2.9693000000000014,59.19000000000005,1.0,0.0,2.0,7.0,0.0,1.0,1.0,1.0,20.31,87.66913890291015,1.904676693511306
(E)-N-(5-methylheptan-3-ylidene)hydroxylamine,CCC(C)C\C(CC)=N\O,-2.1307281267,G1,2.6628000000000007,43.58450000000001,2.0,1.0,2.0,4.0,0.0,0.0,0.0,0.0,32.59,62.9374405661399,3.637420612150152
"N,N-dimethyl-3,3-diphenyloxolan-2-iminium bromide",[Br-].C[N+](C)=C1OCCC1(c2ccccc2)c3ccccc3,-2.5265751338,G1,0.0676000000000021,81.34840000000005,1.0,0.0,3.0,2.0,2.0,1.0,1.0,3.0,12.24,136.40386017282125,1.613332444167172e-06
"2-bromo-3,3,3-trifluoroprop-1-ene",FC(F)(F)C(Br)=C,-2.2385851258,G1,2.4573,24.121999999999996,0.0,0.0,4.0,0.0,0.0,0.0,0.0,0.0,0.0,47.14368603885857,3.7911184170869663
3-(4-methoxyphenyl)-2-methylpropanal,COc1ccc(CC(C)C=O)cc1,-2.24666187,G1,2.0727,51.92600000000003,2.0,0.0,2.0,4.0,1.0,0.0,0.0,1.0,26.3,78.53118102103066,2.6341061805197867
"N-(2,4,4-trimethylpentan-2-yl)prop-2-enamide",CC(C)(C)CC(C)(C)NC(=O)C=C,-2.2588292445,G1,2.503400000000001,56.49070000000004,1.0,1.0,2.0,3.0,0.0,0.0,0.0,0.0,29.1,81.41045342326318,4.23655156601375
"1,1,1,2-tetrafluoroethane",FCC(F)(F)F,-2.0087278867,G1,1.5182000000000002,12.030000000000005,0.0,0.0,4.0,0.0,0.0,0.0,0.0,0.0,0.0,31.76633475393109,3.168489872670569
2-amino-5-chloro-4-methylbenzene-1-sulfonic acid,Cc1cc(N)c(cc1Cl)[S](O)(=O)=O,-2.3456971252,G1,1.4773200000000002,50.41600000000001,3.0,2.0,6.0,1.0,1.0,0.0,0.0,1.0,80.39,81.06813816782858,3.501552734477128
ethyl 3-methyl-3-phenyloxirane-2-carboxylate,CCOC(=O)C1OC1(C)c2ccccc2,-2.3143750058,G1,1.8637,55.30000000000003,3.0,0.0,3.0,3.0,1.0,1.0,1.0,2.0,38.83,89.00383721140493,2.102105018788475
molybdenum trioxide,O=[Mo](=O)=O,-2.1581724467,G1,-0.3589,2.0595,3.0,0.0,4.0,0.0,0.0,0.0,0.0,0.0,51.21,28.098908490929016,4.6475800154489
"sodium 1-amino-9,10-dioxo-4-[(3-propanamidophenyl)amino]-9,10-dihydroanthracene-2-sulfonate",[Na+].CCC(=O)Nc1cccc(Nc2cc(c(N)c3C(=O)c4ccccc4C(=O)c23)[S]([O-])(=O)=O)c1,-2.6879470025,G1,0.0444000000000008,120.77,8.0,3.0,11.0,5.0,3.0,0.0,1.0,4.0,158.48999999999998,217.3306879471916,3.2399954217817675e-06
4-chloro-2-(trifluoromethyl)aniline,Nc1ccc(Cl)cc1C(F)(F)F,-2.2934813757,G1,2.9410000000000007,40.8664,1.0,1.0,5.0,0.0,1.0,0.0,0.0,1.0,26.02,71.93610836656666,3.231425013090014
bis(trimethylsilyl)amine,C[Si](C)(C)N[Si](C)(C)C,-2.2100723772,G4,2.2458,49.82770000000003,1.0,1.0,3.0,2.0,0.0,0.0,0.0,0.0,12.03,61.03569987387136,3.746417931251032
2-tert-butylphenol,CC(C)(C)c1ccccc1O,-2.1899589144,G3,2.689700000000001,46.80680000000004,1.0,1.0,1.0,0.0,1.0,0.0,0.0,1.0,20.23,67.6854053292794,3.1411091905317954
"2,6-dimethyloct-7-en-2-ol",CC(CCCC(C)(C)O)C=C,-2.2212072407,G1,2.7497000000000016,49.50980000000003,1.0,1.0,1.0,5.0,0.0,0.0,0.0,0.0,20.23,70.12836077741076,3.345355728385495
"3-(2H-1,3-benzodioxol-5-yl)-2-methylpropanal",CC(Cc1ccc2OCOc2c1)C=O,-2.3134381403,G1,1.7928,51.49700000000002,3.0,0.0,3.0,3.0,1.0,0.0,1.0,2.0,35.53,82.6388950970083,2.160589415092598
2-chlorobutane,CCC(C)Cl,-2.0012638712,G5,2.0237,25.605999999999987,0.0,0.0,1.0,1.0,0.0,0.0,0.0,0.0,0.0,38.13734359790105,2.5395388613593908
palladium(2+) ion diacetate,[Pd++].CC([O-])=O.CC([O-])=O,-2.3865009,G1,-2.490099999999999,21.36199999999999,4.0,0.0,5.0,0.0,0.0,0.0,0.0,0.0,80.25999999999999,66.53068651409967,-7.199999951999999e-08
4-methyl-2-(2-methylprop-1-en-1-yl)oxane,CC1CCOC(C1)C=C(C)C,-2.2244457918,G1,2.7677000000000014,47.56900000000002,1.0,0.0,1.0,1.0,0.0,1.0,1.0,1.0,9.23,69.44184110119241,2.4000420004736065
2-ethylhexan-1-ol,CCCCC(CC)CO,-2.1604718659,G5,2.1951000000000005,40.3918,1.0,1.0,1.0,5.0,0.0,0.0,0.0,0.0,20.23,58.08807958080181,3.092246194602392
6-methyloct-5-en-2-one,CC\C(C)=C\CCC(C)=O,-2.1925860364,G3,2.711900000000001,43.96300000000002,1.0,0.0,1.0,4.0,0.0,0.0,0.0,0.0,17.07,63.13070701086192,3.4278042616712594
sodium 4-[[4-[(4-hydroxy-2-methylphenyl)azo]phenyl]amino]-3-nitrobenzenesulphonate,[Na+].CC/1=CC(=O)C=CC1=N/Nc2ccc(Nc3ccc(cc3[N+]([O-])=O)[S]([O-])(=O)=O)cc2,-2.6993635863,G1,0.0995999999999996,109.746,9.0,2.0,12.0,6.0,2.0,0.0,1.0,3.0,153.82999999999998,199.4797712370469,3.4133282042746447e-06
"furan-2,5-dicarboxylic acid",OC(=O)c1oc(cc1)C(O)=O,-2.2396237358,G1,0.6759999999999999,32.6266,3.0,2.0,5.0,2.0,1.0,0.0,0.0,1.0,87.74000000000001,60.86712831684656,2.9941705604131186
"2,3-dichlorobenzoic acid",OC(=O)c1cccc(Cl)c1Cl,-2.3316729189,G1,2.691600000000001,43.42130000000001,1.0,1.0,4.0,1.0,1.0,0.0,0.0,1.0,37.3,73.35863353989669,3.2735808215375437
2-amino-4-chloro-5-methylbenzenesulfonic acid,Cc1cc(c(N)cc1Cl)[S](O)(=O)=O,-2.4061778726,G1,1.4773200000000002,50.41600000000001,3.0,2.0,6.0,1.0,1.0,0.0,0.0,1.0,80.39,81.06813816782858,3.501552734477128
N-(2-chlorophenyl)-3-oxobutanamide,CC(=O)CC(=O)Nc1ccccc1Cl,-2.4065360765,G3,2.2576,55.37970000000002,2.0,1.0,4.0,3.0,1.0,0.0,0.0,1.0,46.17,87.06734418766062,2.649628786208871
4-bromophenyl acetate,CC(=O)Oc1ccc(Br)cc1,-2.4166041571,G1,2.3744000000000005,45.451000000000015,2.0,0.0,3.0,1.0,1.0,0.0,0.0,1.0,26.3,73.3039022834822,2.7362980721056545
"naphthalene-1,8-diamine",Nc1cccc2cccc(N)c12,-2.3071228572,G5,2.0042,52.7728,2.0,2.0,2.0,0.0,2.0,0.0,0.0,2.0,52.04,70.79284904525758,2.9609415115705566
"buta-1,3-diene",C=CC=C,-1.8668457003,G1,1.3584,20.393999999999995,0.0,0.0,0.0,1.0,0.0,0.0,0.0,0.0,0.0,26.454871306650865,2.7320508075688776
2-nitro-4-(trifluoromethyl)benzonitrile,[O-][N+](=O)c1cc(ccc1C#N)C(F)(F)F,-2.4707735629,G1,2.4852800000000004,42.8134,3.0,0.0,7.0,1.0,1.0,0.0,0.0,1.0,66.93,81.7034489610374,3.366660654751489
"6,8,9-trinitro-2,4-dioxa-3-plumbabicyclo[3.3.1]nona-1(9),5,7-triene",[Pb++].[O-]c1c(cc(c([O-])c1[N+]([O-])=O)[N+]([O-])=O)[N+]([O-])=O,-2.8083913688,G3,-0.8224000000000005,51.05119999999999,8.0,0.0,12.0,3.0,1.0,0.0,0.0,1.0,175.54,117.26134936494996,2.889998848392143e-06
2-ethylhex-2-enal,CCC\C=C(/CC)C=O,-2.2559578736000003,G3,2.3218000000000005,39.346,1.0,0.0,1.0,4.0,0.0,0.0,0.0,0.0,17.07,56.765764896465306,3.608178415345876
2-ethylhexanal,CCCCC(CC)C=O,-2.2628407967,G5,2.401700000000001,39.37,1.0,0.0,1.0,5.0,0.0,0.0,0.0,0.0,17.07,57.45536792864956,3.1954118462751677
"3,5,5-trimethylhexanoic acid",CC(CC(O)=O)CC(C)(C)C,-2.3542209788,G1,2.533400000000001,45.48880000000002,1.0,1.0,2.0,3.0,0.0,0.0,0.0,0.0,37.3,68.61454379524217,3.694259125238623
"3-oxo-N-(2-oxo-2,3-dihydro-1H-1,3-benzodiazol-5-yl)butanamide",CC(=O)CC(=O)Nc1ccc2NC(=O)Nc2c1,-2.522680786,G1,0.7738,62.847100000000005,3.0,3.0,6.0,3.0,2.0,0.0,0.0,2.0,94.82,96.03607299451876,2.214192321739433
"5-amino-2,3-dihydro-1H-1,3-benzodiazol-2-one",Nc1ccc2NC(=O)Nc2c1,-2.3347829023,G1,0.4384,43.3318,2.0,3.0,4.0,0.0,2.0,0.0,0.0,2.0,74.67,62.04328885024946,2.920939354744553
"2-butyl-4,4,6-trimethyl-1,3-dioxane",CCCCC1OC(C)CC(C)(C)O1,-2.4532973596,G1,3.106700000000002,53.64100000000004,2.0,0.0,2.0,3.0,0.0,1.0,1.0,1.0,18.46,81.60993147728016,2.3831212846348744
2-methyl-1-phenylpropan-1-one,CC(C)C(=O)c1ccccc1,-2.35661526,G1,2.5253000000000005,45.61050000000003,1.0,0.0,1.0,2.0,1.0,0.0,0.0,1.0,17.07,67.05269367712715,2.85953097747342
3-amino-2-hydroxy-5-nitrobenzoic acid,Nc1cc(cc(C(O)=O)c1O)[N+]([O-])=O,-2.4907790333,G1,0.5808,46.13289999999999,5.0,3.0,7.0,2.0,1.0,0.0,0.0,1.0,126.69,77.53920125784187,3.427504477934316
diamminedichloropalladium,N.N.[Cl-].[Cl-].[Pd++],-2.5257397803,G1,-5.670500000000001,10.0442,2.0,2.0,5.0,0.0,0.0,0.0,0.0,0.0,70.0,57.72543127796729,-0.0
"trimethoxy(3,3,4,4,5,5,6,6,7,7,8,8,8-tridecafluorooctyl)silane",CO[Si](CCC(F)(F)C(F)(F)C(F)(F)C(F)(F)C(F)(F)C(F)(F)F)(OC)OC,-2.8923562141000003,G1,4.993400000000002,66.99500000000002,3.0,0.0,17.0,10.0,0.0,0.0,0.0,0.0,27.69,149.6322409304592,6.051884511556186
"4-amino-5-methoxy-N,2-dimethylbenzenesulfonamide",CN[S](=O)(=O)c1cc(OC)c(N)cc1C,-2.5769433589,G1,0.49392,58.38890000000002,4.0,2.0,6.0,3.0,1.0,0.0,0.0,1.0,81.42,89.2903034652295,3.440724730288767
4-tert-butylphenol,CC(C)(C)c1ccc(O)cc1,-2.3914008137,G3,2.689700000000001,46.80680000000004,1.0,1.0,1.0,0.0,1.0,0.0,0.0,1.0,20.23,67.6854053292794,2.993754788259927
"2,3,4-trichlorobut-1-ene",ClCC(Cl)C(Cl)=C,-2.4244542069,G1,2.5851000000000006,35.354,0.0,0.0,3.0,2.0,0.0,0.0,0.0,0.0,0.0,58.054273019480135,3.34341705895396
ethyl 2-methylbutanoate,CCOC(=O)C(C)CC,-2.3364163689,G1,1.5956,36.088,2.0,0.0,2.0,3.0,0.0,0.0,0.0,0.0,26.3,56.20397104375984,3.4588233430659896
4-tert-butylcyclohexan-1-one,CC(C)(C)C1CCC(=O)CC1,-2.4173816076,G1,2.791800000000001,46.42000000000002,1.0,0.0,1.0,0.0,0.0,1.0,1.0,1.0,17.07,69.17942100391356,2.4541174056444697
"(1S-endo)-1,7,7-trimethylbicyclo[2.2.1]heptan-2-ol",CC1(C)[C@@H]2CC[C@]1(C)[C@H](O)C2,-2.4205583952,G1,2.1935,45.23580000000002,1.0,1.0,1.0,0.0,0.0,2.0,2.0,2.0,20.23,68.80630150253657,2.396254979141823
"3,4-dichloroaniline",Nc1ccc(Cl)c(Cl)c1,-2.4461379538,G5,2.575600000000001,40.87440000000001,1.0,1.0,3.0,0.0,1.0,0.0,0.0,1.0,26.02,63.37782627027303,3.171678030440916
magnesium hydrogenorthophosphate,[Mg++].O[P]([O-])([O-])=O,0.2641880223,G1,-2.5734,15.5793,3.0,1.0,6.0,0.0,0.0,0.0,0.0,0.0,83.41999999999999,50.57651665259233,0.0
"1,6-bis[2-(2-butoxyethoxy)ethyl] hexanedioate",CCCCOCCOCCOC(=O)CCCCC(=O)OCCOCCOCCCC,-2.8821848864,G1,3.299800000000002,113.4780000000001,8.0,0.0,8.0,23.0,0.0,0.0,0.0,0.0,89.52000000000001,181.4073510072872,3.293384706434453
1-methoxy-4-methylbenzene,COc1ccc(C)cc1,-2.3395421013,G1,2.00362,37.73100000000001,1.0,0.0,1.0,1.0,1.0,0.0,0.0,1.0,9.23,55.274832577797056,2.881555877646136
N-[3-(morpholin-4-yl)propyl]naphthalen-1-amine,C(CNc1cccc2ccccc12)CN3CCOCC3,-2.702803349,G1,2.974000000000001,84.31370000000004,3.0,1.0,3.0,5.0,2.0,1.0,1.0,3.0,24.5,120.08507238179752,1.518890641237498
2-phenylphenol,Oc1ccccc1c2ccccc2,-2.5067117536000003,G3,3.059200000000001,53.54280000000003,1.0,1.0,1.0,1.0,2.0,0.0,0.0,2.0,20.23,77.28273107775702,2.5360704460016144
2-(2-methylbutan-2-yl)phenol,CCC(C)(C)c1ccccc1O,-2.4912242204,G1,3.079800000000002,51.42380000000004,1.0,1.0,1.0,2.0,1.0,0.0,0.0,1.0,20.23,74.05034744367602,3.101788399219177
trimethoxy-(6-trimethoxysilylhexyl)silane,CO[Si](CCCCCC[Si](OC)(OC)OC)(OC)OC,-2.7929479843,G1,2.303,81.64400000000006,6.0,0.0,8.0,13.0,0.0,0.0,0.0,0.0,55.38000000000001,124.93683132743726,3.869743691575398
"[(1S,2S,3S,5R)-2,6,6-trimethylbicyclo[3.1.1]heptan-3-yl]methanamine",C[C@@H]1[C@@H](CN)C[C@H]2C[C@@H]1C2(C)C,-2.5159153811,G2,2.2634000000000007,51.70340000000003,1.0,1.0,1.0,1.0,0.0,3.0,3.0,3.0,26.02,75.71690056174988,2.1147334624973744
"2,6-dimethylhept-5-enal",CC(CCC=C(C)C)C=O,-2.4478585415,G1,2.567800000000001,43.89300000000002,1.0,0.0,1.0,4.0,0.0,0.0,0.0,0.0,17.07,63.13070701086192,3.362923864895267
2-({2-[bis(carboxymethyl)amino]ethyl}(carboxymethyl)amino)acetic acid,OC(=O)CN(CCN(CC(O)=O)CC(O)=O)CC(O)=O,-2.7667755992000003,G5,-2.071199999999996,63.423200000000016,6.0,4.0,10.0,11.0,0.0,0.0,0.0,0.0,155.68,113.36642080676488,4.494378506622938
6'-methoxycinchonan-9-ol,COc1ccc2nccc([C@@H](O)[C@@H]3CC4CCN3C[C@@H]4C=C)c2c1,-2.8121429703,G1,3.1732000000000014,95.02680000000004,4.0,1.0,4.0,4.0,2.0,3.0,3.0,5.0,45.59,142.3134262032049,1.6870853618182944