Name,SMILES,Solubility,Group,MolLogP,MolMR,NumHAcceptors,NumHDonors,NumHeteroatoms,NumRotatableBonds,NumAromaticRings,NumSaturatedRings,NumAliphaticRings,RingCount,TPSA,LabuteASA,BalabanJ
tabun,CCO[P](=O)(C#N)N(C)C,-0.2186,G1,1.25868,38.532500000000006,3.0,0.0,5.0,3.0,0.0,0.0,0.0,0.0,53.330000000000005,60.89745760057358,4.290343871518226
acetyl tributyl citrate,CCCCOC(=O)CC(CC(=O)OCCCC)(OC(C)=O)C(=O)OCCCC,-4.9058,G4,3.0984000000000016,101.33200000000008,8.0,0.0,8.0,15.0,0.0,0.0,0.0,0.0,105.2,166.7734205195677,5.405774618963106
triethyl citrate,CCOC(=O)CC(O)(CC(=O)OCC)C(=O)OCC,-0.6285,G5,0.187,64.08280000000003,7.0,1.0,7.0,8.0,0.0,0.0,0.0,0.0,99.13,111.37305002704018,4.846201470660812
"1,1,1-tris(hydroxymethyl)propane",CCC(CO)(CO)CO,0.8723,G1,-0.6403000000000001,33.98139999999999,3.0,3.0,3.0,4.0,0.0,0.0,0.0,0.0,60.69,54.94666285640061,3.824684203207495
pentaerythritol tetranitrate,[O-][N+](=O)OCC(CO[N+]([O-])=O)(CO[N+]([O-])=O)CO[N+]([O-])=O,-3.8664,G1,-1.1939999999999995,54.218600000000016,12.0,0.0,16.0,12.0,0.0,0.0,0.0,0.0,209.48,113.0812572913546,5.01638998398724
"3-pentanol, 3-methyl-, carbamate",CCC(C)(CC)OC(N)=O,-1.5599,G1,1.6604,39.6554,2.0,1.0,3.0,3.0,0.0,0.0,0.0,0.0,52.32,61.54386174077256,3.924503442864204
tri-p-cresyl phosphate,Cc1ccc(O[P](=O)(Oc2ccc(C)cc2)Oc3ccc(C)cc3)cc1,-6.0892,G5,6.256760000000005,103.02750000000005,4.0,0.0,5.0,6.0,3.0,0.0,0.0,3.0,44.760000000000005,153.53066423781056,1.876960613088822
carisoprodol,CCCC(C)(COC(N)=O)COC(=O)NC(C)C,-2.9384,G1,2.0227,68.17010000000005,4.0,2.0,6.0,7.0,0.0,0.0,0.0,0.0,90.65,108.1935018259143,4.239056776558339
dibutyl butylphosphonate,CCCCO[P](=O)(CCCC)OCCCC,-2.6995,G1,4.613000000000004,69.10150000000006,3.0,0.0,4.0,11.0,0.0,0.0,0.0,0.0,35.53,100.44364516155386,3.9708178718633502
menazon,CO[P](=S)(OC)SCc1nc(N)nc(N)n1,-3.069,G1,0.7865,68.2498,9.0,2.0,10.0,5.0,1.0,0.0,0.0,1.0,109.17,102.25699775213498,2.708345052445902
linalool,CC(C)=CCCC(C)(O)C=C,-1.9871,G1,2.6698000000000013,49.485800000000026,1.0,1.0,1.0,4.0,0.0,0.0,0.0,0.0,20.23,69.43875774522651,3.705911539178391
"ethane, 1,1,2-tribromo-",BrCC(Br)Br,-2.7272,G1,2.4972000000000003,35.43600000000001,0.0,0.0,3.0,1.0,0.0,0.0,0.0,0.0,0.0,56.70683595915024,2.5395388613593908
"1,2-dibromopropane",CC(Br)CBr,-2.1498,G1,2.1647,32.18299999999999,0.0,0.0,2.0,1.0,0.0,0.0,0.0,0.0,0.0,49.20423046790548,2.5395388613593903
isobutylamine,CC(C)CN,1.1359,G1,0.6011000000000001,23.8924,1.0,1.0,1.0,1.0,0.0,0.0,0.0,0.0,26.02,33.17396806803208,2.5395388613593903
"2,3-dichloropropene",ClCC(Cl)=C,-1.7128,G1,1.9777,25.712999999999997,0.0,0.0,2.0,1.0,0.0,0.0,0.0,0.0,0.0,41.386064678201855,2.847378923087672
chloroacetone,CC(=O)CCl,-0.012,G1,0.8142,21.400999999999996,1.0,0.0,2.0,1.0,0.0,0.0,0.0,0.0,17.07,35.9339235835482,2.847378923087672
1-amino-2-propanol,CC(O)CN,1.1243,G1,-0.6741000000000001,20.735200000000003,2.0,2.0,2.0,1.0,0.0,0.0,0.0,0.0,46.25,31.60325970583149,2.5395388613593903
"1,1-dichloropropane",CCC(Cl)Cl,-1.6217,G1,2.2001,25.78499999999999,0.0,0.0,2.0,1.0,0.0,0.0,0.0,0.0,0.0,42.075667710386114,2.5395388613593908
bromoacetic acid,OC(=O)CBr,1.1002,G1,0.4659,21.4298,1.0,1.0,3.0,1.0,0.0,0.0,0.0,0.0,37.3,37.92749660010729,2.847378923087672
peroxyacetic acid,CC(=O)OO,1.1189,G1,0.0224999999999999,14.3948,3.0,1.0,3.0,0.0,0.0,0.0,0.0,0.0,46.53,29.102789539711125,2.847378923087672
dichloroacetic acid,OC(=O)C(Cl)Cl,0.8896,G1,0.8747,23.1298,1.0,1.0,4.0,1.0,0.0,0.0,0.0,0.0,37.3,44.66648144822928,3.2575861612334887
d-pantothenic acid,CC(C)(CO)C(O)C(=O)NCCC(O)=O,0.6591,G1,-1.0432999999999997,52.13610000000003,4.0,4.0,6.0,6.0,0.0,0.0,0.0,0.0,106.86,87.91439558328604,4.050539880408987
"3-furancarboxylic acid, tetrahydro-2,2-dimethyl-",CC1(C)OC(=O)C[C@@H]1C([O-])=O,-1.2449,G1,-0.922,33.28499999999999,4.0,0.0,4.0,1.0,0.0,1.0,1.0,1.0,66.43,64.15389574247037,2.817106564307271
"benzenesulfonamide, 4-amino-n-[5-(1-methylethyl)",CC(C)c1sc(N[S](=O)(=O)c2ccc(N)cc2)nn1,-3.4141,G1,2.0445,75.66090000000001,6.0,2.0,8.0,4.0,2.0,0.0,0.0,2.0,97.97,115.28196524249591,2.229044698280928
"peroxide, bis(1-methyl-1-phenylethyl)",CC(C)(OOC(C)(C)c1ccccc1)c2ccccc2,-5.7692,G3,4.805200000000005,81.10600000000007,2.0,0.0,2.0,5.0,2.0,0.0,0.0,2.0,18.46,120.83453578669274,2.080213974786274
p-tert-amylphenol,CCC(C)(C)c1ccc(O)cc1,-2.9902,G3,3.079800000000001,51.42380000000004,1.0,1.0,1.0,2.0,1.0,0.0,0.0,1.0,20.23,74.05034744367602,2.9642864574405583
"preg-4-ene-3,20-dione, 11-hydroxy-, (11.alpha.)-",CC(=O)C1CC[C@H]2[C@@H]3CCC4=CC(=O)CC[C@]4(C)[C@H]3[C@H](O)C[C@]12C,-3.8202,G1,3.694300000000003,92.27080000000004,3.0,1.0,3.0,1.0,0.0,3.0,4.0,4.0,54.370000000000005,144.4424436217441,1.7233351689464649
chlormezanone,CN1C(c2ccc(Cl)cc2)[S](=O)(=O)CCC1=O,-2.0394,G1,1.6155,65.36680000000003,3.0,0.0,6.0,1.0,1.0,1.0,1.0,2.0,54.45,105.10030291686616,2.4600462696750736
musk ketone,CC(=O)c1c(C)c(c(c(c1C)[N+]([O-])=O)C(C)(C)C)[N+]([O-])=O,-5.1901,G1,3.6199400000000033,77.92930000000001,5.0,0.0,7.0,3.0,1.0,0.0,0.0,1.0,103.35,121.81841357971317,4.1661356749356
cholic acid,C[C@H](CCC(O)=O)[C@H]1CC[C@H]2[C@@H]3[C@H](O)C[C@@H]4C[C@H](O)CC[C@]4(C)[C@H]3C[C@H](O)[C@]12C,-3.3682,G1,3.4487000000000023,110.03720000000008,4.0,4.0,5.0,4.0,0.0,4.0,4.0,4.0,97.99,174.44805215366245,1.6063269488351186
purpurin,Oc1cc(O)c2C(=O)c3ccccc3C(=O)c2c1O,-4.6024,G1,1.5787999999999995,64.74340000000002,5.0,3.0,5.0,0.0,2.0,0.0,1.0,3.0,94.83,106.91829585750057,2.4251758065888405
coumachlor,CC(=O)CC(c1ccc(Cl)cc1)C2=C(O)Oc3ccccc3C2=O,-5.836,G1,4.263000000000003,92.74180000000004,4.0,1.0,5.0,4.0,3.0,0.0,0.0,3.0,67.50999999999999,142.8552913180569,2.242640220213431
"benzoic acid, 2- bis(4-hydroxyphenyl)methyl -",Oc1ccc(cc1)C(c2ccc(O)cc2)c3ccccc3C(O)=O,-3.2626,G1,3.976200000000002,90.55990000000006,3.0,3.0,4.0,4.0,3.0,0.0,0.0,3.0,77.75999999999999,138.81969911705008,2.2070448331967043
"1-amino-2-methyl-9,10-anthracenedione",Cc1ccc2C(=O)c3ccccc3C(=O)c2c1N,-5.8541,G1,2.35262,68.89840000000001,3.0,1.0,3.0,0.0,2.0,0.0,1.0,3.0,60.16,104.24042741232184,2.3767550120547685
"1,8-anthraquinonedisulfonic acid",O[S](=O)(=O)c1cccc2C(=O)c3cccc(c3C(=O)c12)[S](O)(=O)=O,1.2572,G1,0.9554000000000002,79.37820000000004,6.0,2.0,10.0,2.0,2.0,0.0,1.0,3.0,142.88,135.79286662099378,2.463892691270332
cyclizine,CN1CCN(CC1)C(c2ccccc2)c3ccccc3,-2.4255,G3,3.0234000000000014,83.79700000000005,2.0,0.0,2.0,3.0,2.0,1.0,1.0,3.0,6.48,121.1919861988182,1.9195611561338584
pindone,CC(C)(C)C(=O)C1C(=O)c2ccccc2C1=O,-4.107,G1,2.2970000000000006,63.05500000000003,3.0,0.0,3.0,1.0,1.0,0.0,1.0,2.0,51.21,99.82967518127192,2.473696164244312
methylprednisolone,C[C@H]1C[C@H]2[C@@H]3CC[C@](O)(C(=O)CO)[C@@]3(C)C[C@H](O)[C@@H]2[C@@]4(C)C=CC(=O)C=C14,-3.4942,G1,1.8036,99.59540000000004,5.0,3.0,5.0,2.0,0.0,3.0,4.0,4.0,94.83,159.70625020834845,1.781065864389522
deoxycholic acid,C[C@H](CCC(O)=O)[C@H]1CC[C@H]2[C@@H]3CC[C@@H]4C[C@H](O)CC[C@]4(C)[C@H]3C[C@H](O)[C@]12C,-3.9544,G1,4.477900000000005,108.64740000000008,3.0,3.0,4.0,4.0,0.0,4.0,4.0,4.0,77.76,169.6538184014664,1.5625279212635272
"4(1h)-quinolinone, 1-methyl-",CN1C=CC(=O)c2ccccc12,-0.9818,G1,1.5385,49.18900000000002,2.0,0.0,2.0,0.0,2.0,0.0,0.0,2.0,22.0,70.06915133321438,3.0484072358912115
rotenone,COc1cc2OC[C@H]3Oc4c5C[C@@H](Oc5ccc4C(=O)[C@H]3c2cc1OC)C(C)=C,-6.2949,G1,3.703300000000002,105.90450000000006,6.0,0.0,6.0,3.0,2.0,0.0,3.0,5.0,63.22,168.52501233872994,1.581624927135841
riboflavin,Cc1cc2N=C3C(=O)NC(=O)N=C3N(CC(O)C(O)C(O)CO)c2cc1C,-3.6478,G5,-1.7235599999999989,95.6209,9.0,5.0,10.0,5.0,1.0,0.0,2.0,3.0,161.56,152.29232415746102,2.2752894120966243
o-terphenyl,c1ccc(cc1)c2ccccc2c3ccccc3,-5.2692,G1,5.020600000000004,77.31400000000004,0.0,0.0,0.0,2.0,3.0,0.0,0.0,3.0,0.0,107.54559153162504,2.177338239934605
quininone,COc1ccc2nccc(C(=O)C3CC4CCN3CC4C=C)c2c1,-5.0313,G1,3.3225000000000025,94.39750000000004,4.0,0.0,4.0,4.0,2.0,3.0,3.0,5.0,42.43,141.68071455105266,1.70209479865503
"2,6-dihydroxy-anthraquinone",Oc1ccc2C(=O)c3cc(O)ccc3C(=O)c2c1,-5.8892,G1,1.8732,63.07860000000002,4.0,2.0,4.0,0.0,2.0,0.0,1.0,3.0,74.6,102.12406210530456,2.3147588544522666
diphenyl phthalate,O=C(Oc1ccccc1)c2ccccc2C(=O)Oc3ccccc3,-6.5891,G1,4.125000000000003,89.24300000000002,4.0,0.0,4.0,4.0,3.0,0.0,0.0,3.0,52.60000000000001,138.82561041951956,1.8205415109696528
didecyl phthalate,CCCCCCCCCCOC(=O)c1ccccc1C(=O)OCCCCCCCCCC,-9.3076,G1,8.281600000000006,132.22700000000006,4.0,0.0,4.0,20.0,1.0,0.0,0.0,1.0,52.60000000000001,196.0102642953237,2.2375678668586367
xanthoxyletin,COc1c2C=CC(=O)Oc2cc3OC(C)(C)C=Cc13,-3.81,G1,2.985800000000002,72.77700000000003,4.0,0.0,4.0,1.0,2.0,0.0,1.0,3.0,48.67,109.8007155349649,2.361669969172965
8-chlorotheophylline,CN1C(=O)N(C)c2nc(Cl)[nH]c2C1=O,-1.5075,G1,-0.3863000000000005,51.5857,5.0,1.0,7.0,0.0,2.0,0.0,0.0,2.0,72.68,82.75730964403908,3.1743854173727075
"benzoic acid, 2-(4-chlorobenzoyl)-",OC(=O)c1ccccc1C(=O)c2ccc(Cl)cc2,-2.7171,G1,3.269200000000001,68.28580000000002,2.0,1.0,4.0,3.0,2.0,0.0,0.0,2.0,54.37,108.63892573351944,2.459795907470056
3'-methylphthalanilic acid,Cc1cccc(NC(=O)c2ccccc2C(O)=O)c1,-2.407,G1,2.945520000000001,72.53350000000003,2.0,2.0,4.0,3.0,2.0,0.0,0.0,2.0,66.4,110.25046380464244,2.2795684071549243
"2,7-naphthalenedisulfonic acid, 1-amino-",Nc1ccc(c2cc(ccc12)[S](O)(=O)=O)[S](O)(=O)=O,-0.2592,G1,0.9154000000000002,67.98960000000002,5.0,3.0,9.0,2.0,2.0,0.0,0.0,2.0,134.76,108.71023036832612,2.978954274654044
"1,6-naphthalenedisulfonic acid, 4-amino-",Nc1ccc(c2ccc(cc12)[S](O)(=O)=O)[S](O)(=O)=O,-1.643,G1,0.9154000000000002,67.98960000000002,5.0,3.0,9.0,2.0,2.0,0.0,0.0,2.0,134.76,108.71023036832612,2.9324305727929096
diphenylacetonitrile,N#CC(c1ccccc1)c2ccccc2,-2.9437,G1,3.342080000000002,60.34000000000003,1.0,0.0,1.0,2.0,2.0,0.0,0.0,2.0,23.79,89.61096123582294,2.3923079888567997
8-quinolinecarboxylic acid,OC(=O)c1cccc2cccnc12,-1.7447,G1,1.933,48.702300000000015,2.0,1.0,3.0,1.0,2.0,0.0,0.0,2.0,50.19,74.65341359881505,2.83097565836767
"benzaldehyde, 3,4,5-trimethoxy-",COc1cc(C=O)cc(OC)c1OC,-2.1195,G1,1.5248999999999997,51.48550000000003,4.0,0.0,4.0,4.0,1.0,0.0,0.0,1.0,44.760000000000005,82.3933293656478,3.309285566741771
"benzoic acid, 2-hydroxy-, 3-methylbutyl ester",CC(C)CCOC(=O)c1ccccc1O,-3.1572,G1,2.5951000000000017,57.84430000000004,3.0,1.0,3.0,4.0,1.0,0.0,0.0,1.0,46.53,89.69035688762328,2.50866447696668
"benzoic acid, 2-hydroxy-, 2-hydroxyethyl ester",OCCOC(=O)c1ccccc1O,-1.1567,G1,0.5412999999999999,45.475100000000026,4.0,2.0,4.0,3.0,1.0,0.0,0.0,1.0,66.76,75.38976429662947,2.710721902361315
n-acetyl-dl-tryptophan,CC(=O)N[C@@H](Cc1c[nH]c2ccccc12)C([O-])=O,-2.3122,G1,-0.0350000000000003,64.61440000000002,3.0,2.0,5.0,4.0,2.0,0.0,0.0,2.0,85.02000000000001,103.81407878012112,2.255584922915833
6-chloropurine,Clc1ncnc2nc[nH]c12,-1.4901,G1,1.0062999999999998,36.69370000000001,3.0,1.0,5.0,0.0,2.0,0.0,0.0,2.0,54.46,61.284438241967685,2.950090305322589
pyrolan,CN(C)C(=O)Oc1cc(C)nn1c2ccccc2,-2.0886,G1,2.2411200000000004,68.01200000000003,4.0,0.0,5.0,2.0,2.0,0.0,0.0,2.0,47.36000000000001,105.59040023986232,2.346473820907022
2-methyl-6-chlorophenol,Cc1cccc(Cl)c1O,-0.7739,G1,2.3540200000000007,37.85380000000001,1.0,1.0,2.0,0.0,1.0,0.0,0.0,1.0,20.23,58.89384521297126,3.2478347337367026
"1,2,3-trihydroxybenzene",Oc1cccc(O)c1O,0.6043,G3,0.8033999999999997,31.436399999999992,3.0,3.0,3.0,0.0,1.0,0.0,0.0,1.0,60.69,51.814104376085,3.2478347337367026
hexabromobenzene,Brc1c(Br)c(Br)c(Br)c(Br)c1Br,-9.5374,G3,6.261600000000001,72.642,0.0,0.0,6.0,0.0,1.0,0.0,0.0,1.0,0.0,120.6366887533451,3.603567451474548
"1,3,5-trichloroisocyanuric acid",ClN1C(=O)N(Cl)C(=O)N(Cl)C1=O,-1.2871,G1,-0.8226000000000001,42.975,6.0,0.0,9.0,0.0,1.0,0.0,0.0,1.0,66.0,79.44963900055785,3.998306133327459
"2,4,6-trichlorophenol",Oc1c(Cl)cc(Cl)cc1Cl,-2.3924,G3,3.3523999999999994,43.13680000000001,1.0,1.0,4.0,0.0,1.0,0.0,0.0,1.0,20.23,73.135435552338,3.310532874722407
2-acetylthiophene,CC(=O)c1sccc1,-0.9549,G1,1.9507,34.3235,2.0,0.0,2.0,1.0,1.0,0.0,0.0,1.0,17.07,51.96317271874543,2.9283752374267684
3-trifluoromethyl-4-nitrophenol,Oc1ccc(c(c1)C(F)(F)F)[N+]([O-])=O,-1.6172,G1,2.3192000000000004,39.76320000000001,3.0,1.0,7.0,1.0,1.0,0.0,0.0,1.0,63.37,75.74016091736809,3.3771158134046155
dinoseb,CCC(C)c1cc(cc(c1O)[N+]([O-])=O)[N+]([O-])=O,-3.6646,G5,2.7221000000000024,60.121600000000015,5.0,1.0,7.0,4.0,1.0,0.0,0.0,1.0,106.51,96.99135677427898,3.4804705364557766
"1,2-benzenedicarboxamide",NC(=O)c1ccccc1C(N)=O,-2.4371,G3,-0.1155999999999998,43.4778,2.0,2.0,4.0,2.0,1.0,0.0,0.0,1.0,86.18,69.16411294240314,3.267076195703771
"benzeneacetic acid, 2-carboxy-",OC(=O)Cc1ccccc1C(O)=O,-1.0515,G1,1.0119,44.74110000000001,2.0,2.0,4.0,3.0,1.0,0.0,0.0,1.0,74.6,74.43774116716635,3.0435273546341013
4-chloro-2-nitroaniline,Nc1ccc(Cl)cc1[N+]([O-])=O,-2.5380000000000003,G3,1.8304,42.518800000000006,3.0,1.0,5.0,1.0,1.0,0.0,0.0,1.0,69.16,67.72753576589115,3.232208870305491
4-chloro-2-nitrophenol,Oc1ccc(Cl)cc1[N+]([O-])=O,-3.0902,G1,1.9538,39.77120000000001,3.0,1.0,5.0,1.0,1.0,0.0,0.0,1.0,63.37,67.18187882107445,3.232208870305491
"d-glycero-d-gulo-heptonic acid, .gamma.-lactone",OCC(O)C(O)C1OC(=O)C(O)C1O,0.3348,G3,-3.6523,40.993000000000016,7.0,5.0,7.0,3.0,0.0,1.0,1.0,1.0,127.45000000000002,79.16930865121067,2.65785076373889
chlorothymol,CC(C)c1cc(Cl)c(C)cc1O,-2.2664,G1,3.4774200000000026,51.94280000000003,1.0,1.0,2.0,1.0,1.0,0.0,0.0,1.0,20.23,77.9886715561611,3.231552503570132
1-bromonaphthalene,Brc1cccc2ccccc12,-4.3468,G1,3.6023000000000014,51.648000000000025,0.0,0.0,1.0,0.0,2.0,0.0,0.0,2.0,0.0,73.98061525687352,2.9131611636048604
l-sparteine,C1CCN2C[C@@H]3C[C@@H](CN4CCCC[C@H]34)[C@@H]2C1,-1.8871,G1,2.3451000000000004,70.02100000000006,2.0,0.0,2.0,0.0,0.0,4.0,4.0,4.0,6.48,105.3447833556719,1.561157944784887
penicillic acid,COC(=CC(O)=O)C(=O)C(C)=C,-0.9299,G1,0.7464999999999999,42.548800000000014,3.0,1.0,4.0,4.0,0.0,0.0,0.0,0.0,63.6,70.14546294602772,4.678586387965393
"d-gluconic acid, .delta.-lactone",OCC1OC(=O)C(O)C(O)C1O,0.5201,G1,-3.0132,34.9862,6.0,4.0,6.0,1.0,0.0,1.0,1.0,1.0,107.22,68.01013278461804,2.700156133679265
"4,4-bis(dimethylamino)benzophenone",CN(C)c1ccc(cc1)C(=O)c2ccc(cc2)N(C)C,-2.8267,G1,3.0496000000000016,84.97050000000004,3.0,0.0,3.0,4.0,2.0,0.0,0.0,2.0,23.550000000000004,119.99439733799456,2.2190020999743023
quinoxaline,c1ccc2nccnc2c1,0.7051,G1,1.6297999999999997,39.53800000000001,2.0,0.0,2.0,0.0,2.0,0.0,0.0,2.0,25.78,58.5523636131252,2.888051601657992
2-naphthylamine,Nc1ccc2ccccc2c1,-2.8795,G1,2.4220000000000006,48.36040000000002,1.0,1.0,1.0,0.0,2.0,0.0,0.0,2.0,26.02,65.45295834824489,2.828901215620696
methapyrilene,CN(C)CCN(Cc1sccc1)c2ccccn2,-2.6383,G1,2.7113000000000014,78.16000000000004,4.0,0.0,4.0,6.0,2.0,0.0,0.0,2.0,19.37,112.6928864893088,2.0732034269229183
4-phenylcatechol,Oc1ccc(cc1O)c2ccccc2,-2.0659,G1,2.764800000000001,55.20760000000003,2.0,2.0,2.0,1.0,2.0,0.0,0.0,2.0,40.46,82.07696482995303,2.483814803753657
m-terphenyl,c1ccc(cc1)c2cccc(c2)c3ccccc3,-5.183,G1,5.020600000000004,77.31400000000004,0.0,0.0,0.0,2.0,3.0,0.0,0.0,3.0,0.0,107.54559153162504,2.053580217290233
tolonium chloride,[Cl-].CN(C)c1ccc2nc3cc(C)c(N)cc3[s+]c2c1,-0.9034,G1,0.6912200000000012,85.00940000000003,3.0,1.0,5.0,1.0,3.0,0.0,0.0,3.0,42.150000000000006,128.01287495721292,1.4699992770170363e-06
"2,3-naphthalenediol",Oc1cc2ccccc2cc1O,-2.7377,G1,2.251000000000001,47.27760000000002,2.0,2.0,2.0,0.0,2.0,0.0,0.0,2.0,40.46,69.7015351556242,2.8395199428108358
"ethanol, 2-(ethylphenylamino)-",CCN(CCO)c1ccccc1,-1.9171,G1,1.5052,51.41480000000004,2.0,1.0,2.0,4.0,1.0,0.0,0.0,1.0,23.47,73.44523899948278,2.662895642916564
"3,6-diaminoacridine",Nc1ccc2cc3ccc(N)cc3nc2c1,0.3783,G1,2.5524000000000004,68.0738,3.0,2.0,3.0,0.0,3.0,0.0,0.0,3.0,64.93,92.69416155793932,2.4397721399992816
4-acetylbiphenyl,CC(=O)c1ccc(cc1)c2ccccc2,-3.3104,G1,3.5562000000000022,61.88250000000004,1.0,0.0,1.0,2.0,2.0,0.0,0.0,2.0,17.07,89.37990365439799,2.361069147232481
p-nitrobiphenyl,[O-][N+](=O)c1ccc(cc1)c2ccccc2,-5.2094,G1,3.261800000000002,58.53240000000003,2.0,0.0,3.0,2.0,2.0,0.0,0.0,2.0,43.14,87.1414730480608,2.361069147232481
"benzaldehyde, 2,5-dimethoxy-",COc1ccc(OC)c(C=O)c1,-2.3202,G1,1.5163,44.93350000000002,3.0,0.0,3.0,3.0,1.0,0.0,0.0,1.0,35.53,70.9148420217443,3.0999386159446907
2-quinolinecarboxylic acid,OC(=O)c1ccc2ccccc2n1,-1.0911,G1,1.933,48.702300000000015,2.0,1.0,3.0,1.0,2.0,0.0,0.0,2.0,50.19,74.65341359881505,2.6860346638769905
"quinoline, 2,7-dimethyl-",Cc1ccc2ccc(C)nc2c1,-1.9424,G1,2.8516400000000006,51.21700000000002,1.0,0.0,1.0,0.0,2.0,0.0,0.0,2.0,12.89,72.06259986097191,2.797846408466882
"2-chloro-n,n-diallylacetamide",ClCC(=O)N(CC=C)CC=C,-0.9452,G1,1.4258,47.69400000000002,1.0,0.0,3.0,5.0,0.0,0.0,0.0,0.0,20.31,72.1392617613661,3.952612951104181
"2,4,5-tb",OC(=O)CCCOc1cc(Cl)c(Cl)cc1Cl,-3.8294,G1,3.8904000000000014,63.836800000000025,2.0,1.0,6.0,5.0,1.0,0.0,0.0,1.0,46.53,107.87027133947504,2.537807527581172
"1,3-butanedione, 1-phenyl-",CC(=O)CC(=O)c1ccccc1,-2.6268,G1,1.8484,46.07050000000002,2.0,0.0,2.0,3.0,1.0,0.0,0.0,1.0,34.14,71.21421577717092,2.725078186491341
"benzoic acid, anhydride",O=C(OC(=O)c1ccccc1)c2ccccc2,-4.3546,G1,2.6838000000000006,62.63000000000003,3.0,0.0,3.0,2.0,2.0,0.0,0.0,2.0,43.370000000000005,98.65497098394864,2.079926562733872
"2,4-d, isopropyl ester",CC(C)OC(=O)COc1ccc(Cl)cc1Cl,-3.848,G1,3.323800000000002,63.18500000000003,3.0,0.0,5.0,4.0,1.0,0.0,0.0,1.0,35.53,104.25125870430084,2.5137710721643542
"benzoic acid, 4-amino-, 2-methylpropyl ester",CC(C)COC(=O)c1ccc(N)cc1,-2.9437,G1,2.0816,55.97490000000003,3.0,1.0,3.0,3.0,1.0,0.0,0.0,1.0,52.32,83.87107171804337,2.5660357728607748
parethoxycaine,CCOc1ccc(cc1)C(=O)OCCN(CC)CC,-2.7145,G1,2.5839000000000008,75.68150000000004,4.0,0.0,4.0,8.0,1.0,0.0,0.0,1.0,38.77,114.86432837832731,2.4032661185674624
pralidoxime iodide [usan:inn:jan],[I-].CN1C=CC=C\C1=C/[NH+]=O,-0.7405,G1,-3.3058999999999985,38.4557,2.0,1.0,4.0,1.0,0.0,0.0,1.0,1.0,34.28,82.45262153519491,9.999998160000349e-07
"2,4-d, butyl ester",CCCCOC(=O)COc1ccc(Cl)cc1Cl,-3.78,G1,3.715500000000002,67.82400000000004,3.0,0.0,5.0,6.0,1.0,0.0,0.0,1.0,35.53,110.61620081869748,2.366463998272113
mcpb,Cc1cc(Cl)ccc1OCCCC(O)=O,-3.678,G1,2.8920200000000005,58.55380000000003,2.0,1.0,4.0,5.0,1.0,0.0,0.0,1.0,46.53,93.62868100010836,2.404692996477169
"2,4-deb",Clc1ccc(OCCOC(=O)c2ccccc2)c(Cl)c1,-3.8118,G1,4.229200000000002,78.68150000000003,3.0,0.0,5.0,5.0,2.0,0.0,0.0,2.0,35.53,126.5784686815717,1.778825888320389
"2-ethyl-1,3-hexandiol",CCCC(O)C(CC)CO,-0.5418,G3,1.1659,41.781600000000005,2.0,2.0,2.0,5.0,0.0,0.0,0.0,0.0,40.46,62.88231333299781,3.529930309226677
triethylene glycol bis(2-ethylbutyrate),CCC(CC)C(=O)OCCOCCOCCOC(=O)C(CC)CC,-3.2386,G1,2.978400000000001,91.70000000000007,6.0,0.0,6.0,15.0,0.0,0.0,0.0,0.0,71.06,145.72049209068695,3.428758790005351
dimethyl glyoxime,C\C(NO)=C(/C)N=O,-2.2868,G1,0.983,29.0912,4.0,2.0,4.0,2.0,0.0,0.0,0.0,0.0,61.69,47.137340758347634,4.027243339066914
"3,4-xylidine",Cc1ccc(N)cc1C,-1.5036,G1,1.88564,40.32840000000001,1.0,1.0,1.0,0.0,1.0,0.0,0.0,1.0,26.02,55.50117804530289,3.171678030440915
"3,4-dichlorophenol",Oc1ccc(Cl)c(Cl)c1,-1.2458,G1,2.6990000000000007,38.12680000000001,1.0,1.0,3.0,0.0,1.0,0.0,0.0,1.0,20.23,62.83216932545633,3.171678030440916
ethyl oxalate,CCOC(=O)C(=O)OCC,-0.6085,G1,0.1126,33.26599999999999,4.0,0.0,4.0,2.0,0.0,0.0,0.0,0.0,52.60000000000001,59.11409625891388,3.6012554446032645
"2,3-dibromo-1-propanol",OCC(Br)CBr,-0.6222,G1,1.1371,33.5948,1.0,1.0,3.0,2.0,0.0,0.0,0.0,0.0,20.23,53.998464220101496,2.7541847860376616
"1,2,3-trichloropropane",ClCC(Cl)CCl,-1.9255,G1,2.0714,31.080999999999992,0.0,0.0,3.0,2.0,0.0,0.0,0.0,0.0,0.0,52.37893393726779,2.7541847860376616
2-amino-1-butanol,CCC(N)CO,1.0499,G1,-0.2840000000000001,25.3522,2.0,2.0,2.0,2.0,0.0,0.0,0.0,0.0,46.25,37.9682018202281,2.7541847860376616
"3-chloro-1,2-propanediol",OCC(O)CCl,0.9565,G1,-0.4216,23.812599999999996,2.0,2.0,3.0,2.0,0.0,0.0,0.0,0.0,40.46,41.36086898789646,2.7541847860376616
2-butanone oxime,CC\C(C)=N\O,0.0599,G1,1.2465,25.18649999999999,2.0,1.0,2.0,1.0,0.0,0.0,0.0,0.0,32.59,37.477672108553485,3.218815056043413