Name,SMILES,Solubility,Group,MolLogP,MolMR,NumHAcceptors,NumHDonors,NumHeteroatoms,NumRotatableBonds,NumAromaticRings,NumSaturatedRings,NumAliphaticRings,RingCount,TPSA,LabuteASA,BalabanJ
"4,11-diamino-2-(3-methoxypropyl)-1H,2H,3H,5H,10H-naphtho[2,3-f]isoindole-1,3,5,10-tetrone",COCCCN1C(=O)c2c(N)c3C(=O)c4ccccc4C(=O)c3c(N)c2C1=O,-7.323792769,G3,0.4649999999999996,109.71980000000006,8.0,2.0,8.0,4.0,4.0,0.0,0.0,4.0,134.48,156.79471210360603,2.2475277234697733
docosanoic acid,CCCCCCCCCCCCCCCCCCCCCC(O)=O,-7.3281144602,G2,7.892900000000008,105.6498000000001,1.0,1.0,2.0,20.0,0.0,0.0,0.0,0.0,37.3,151.35879128239813,2.9653789386426435
3-phenylpropyl benzoate,O=C(OCCCc1ccccc1)c2ccccc2,-4.8009737888,G1,3.476200000000002,71.48750000000004,2.0,0.0,2.0,5.0,2.0,0.0,0.0,2.0,26.3,107.2233331126981,1.7154979320476862
2-methylheptan-1-ol,CCCCCC(C)CO,-2.5281270707,G1,2.1951000000000005,40.3918,1.0,1.0,1.0,5.0,0.0,0.0,0.0,0.0,20.23,58.08807958080181,2.8766225950797444
palladium (II) di(4-oxopent-2-en-2-oate),[Pd++].CC(=O)[CH-]C(C)=O.CC(=O)[CH-]C(C)=O,-7.438461096699999,G1,0.7348799999999998,51.32400000000003,4.0,0.0,5.0,4.0,0.0,0.0,0.0,0.0,68.28,103.45491589617484,-1.7999999750625006e-07
"3,4,9,10-Perylenetetracarboxylic diimide",O=C1NC(=O)c2ccc3c4ccc5C(=O)NC(=O)c6ccc(c7ccc1c2c37)c4c56,-7.591458633999999,G1,3.0162000000000013,118.81740000000002,4.0,2.0,6.0,0.0,7.0,0.0,0.0,7.0,99.86,164.5648244322474,1.9470579005489248
"1-hydroxy-4-[(4-methylphenyl)amino]-9,10-dihydroanthracene-9,10-dione",Cc1ccc(Nc2ccc(O)c3C(=O)c4ccccc4C(=O)c23)cc1,-7.5491813124,G1,4.219620000000003,95.87550000000005,4.0,2.0,4.0,2.0,3.0,0.0,1.0,4.0,66.4,144.3017268571772,1.880584531135968
oxygen(-2) anion; zirconium(+4) cation; sulfate,[O--].[Zr+4].[O-][S]([O-])(=O)=O,-7.706047479099999,G1,-1.4592999999999998,11.1611,4.0,0.0,7.0,0.0,0.0,0.0,0.0,0.0,108.76,59.735193570732825,-7.999999835000003e-08
"2-ethyl-2-[2-(6-methoxy-3,4-dihydro-2H-naphthalen-1-ylidene)ethyl]cyclopentane-1,3-dione",CCC1(C\C=C2/CCCc3cc(OC)ccc23)C(=O)CCC1=O,-4.172504242,G1,4.133400000000004,90.49800000000006,3.0,0.0,3.0,4.0,1.0,1.0,2.0,3.0,43.370000000000005,137.2759168114012,1.898753623524068
octadecane,CCCCCCCCCCCCCCCCCC,-7.6275399492,G1,7.267800000000007,85.22000000000008,0.0,0.0,0.0,15.0,0.0,0.0,0.0,0.0,0.0,116.94326697257192,2.862306209193584
"8,8-dimethyl-7-propan-2-yl-6,10-dioxaspiro[4.5]decane",CC(C)C1OC2(CCCC2)OCC1(C)C,-3.5242437705,G1,3.354300000000002,60.64300000000005,2.0,0.0,2.0,1.0,0.0,2.0,2.0,2.0,18.46,93.33398455254417,2.1208837104490783
methyl palmitate,CCCCCCCCCCCCCCCC(=O)OC,-7.8300382351,G1,5.640700000000005,82.32800000000007,2.0,0.0,2.0,14.0,0.0,0.0,0.0,0.0,26.3,119.85339218772596,2.969254449003075
"Bis(2-hydroxyethyl) 2-[(6-oxobenzo[c][2,1]benzoxaphosphinin-6-yl)methyl]butanedioate",OCCOC(=O)CC(C[P]1(=O)Oc2ccccc2c3ccccc13)C(=O)OCCO,-4.4617795617,G1,1.7266999999999992,108.81010000000003,8.0,2.0,9.0,9.0,2.0,0.0,1.0,3.0,119.36,173.39556275282206,1.9147604397585496
"2,2-dimethyl-1,3-dihydroperimidine",CC1(C)Nc2cccc3cccc(N1)c23,-2.9298988951,G1,3.4133000000000013,65.27240000000003,2.0,2.0,2.0,0.0,2.0,0.0,1.0,3.0,24.06,89.30178720810885,2.362182776100162
potassium 16-methylheptadecanoate,[K+].CC(C)CCCCCCCCCCCCCCC([O-])=O,-8.1469015236,G4,1.8576999999999984,84.48300000000008,2.0,0.0,3.0,15.0,0.0,0.0,0.0,0.0,40.13,174.82158752017426,0.0
2-[(4-{[2-(4-cyclohexylphenoxy)ethyl](ethyl)amino}-2-methylphenyl)methylidene]propanedinitrile,CCN(CCOc1ccc(cc1)C2CCCCC2)c3ccc(C=C(C#N)C#N)c(C)c3,-8.3860948559,G5,6.378580000000007,126.03200000000008,4.0,0.0,4.0,8.0,2.0,1.0,1.0,3.0,60.05,185.9257331184444,1.5659081484278023
"2,4-ditert-butyl-6-(3,5-ditert-butyl-2-hydroxyphenyl)phenol",CC(C)(C)c1cc(c(O)c(c1)C(C)(C)C)c2cc(cc(c2O)C(C)(C)C)C(C)(C)C,-6.889187496900001,G2,7.954800000000009,130.00760000000005,2.0,2.0,2.0,1.0,2.0,0.0,0.0,2.0,40.46,183.9160386602988,3.0271210353001483
1-[(E)-2-(2-methoxyphenyl)diazen-1-yl]naphthalen-2-ol,COc1ccccc1N\N=C2/C(=O)C=Cc3ccccc23,-8.9260164319,G1,3.1073000000000013,83.63670000000003,4.0,1.0,4.0,3.0,2.0,0.0,1.0,3.0,50.69,122.30816173108435,1.9595082253169287
methyl octadecanoate,CCCCCCCCCCCCCCCCCC(=O)OC,-8.9978390846,G1,6.420900000000007,91.56200000000008,2.0,0.0,2.0,16.0,0.0,0.0,0.0,0.0,26.3,132.5832764165192,2.9775135900228027
"1,2-Benzenedicarboxylic acid, di-C9-11-branched alkyl esters, C10-rich",CC(C)CCCCCCCOC(=O)c1ccccc1C(=O)OCCCCCCCC(C)C,-9.4195398078,G1,7.993400000000009,132.08700000000005,4.0,0.0,4.0,18.0,1.0,0.0,0.0,1.0,52.60000000000001,196.0102642953237,2.264773913876615
divanadium pentaoxide,O=[V](=O)O[V](=O)=O,-2.3036141272,G1,-0.5486,3.831,5.0,0.0,7.0,2.0,0.0,0.0,0.0,0.0,77.51,48.3809538226844,3.773284860851449
"Propylidynetrimethanol, ethoxylated, esters with acrylic acid",CCC(COCCOC(=O)C=C)(COCCOC(=O)C=C)COCCOC(=O)C=C,-2.687445856,G2,1.6202,108.64900000000009,9.0,0.0,9.0,19.0,0.0,0.0,0.0,0.0,106.59,177.13512189638158,4.515298451648146
4-[(4-hydroxyphenyl)(pyridin-2-yl)methyl]phenol,Oc1ccc(cc1)C(c2ccc(O)cc2)c3ccccn3,-4.523907797200001,G1,3.6730000000000023,81.39560000000003,3.0,2.0,3.0,3.0,3.0,0.0,0.0,3.0,53.35,122.71864913136018,2.1061486300089007
disilver(1+) carbonate,[Ag].OC(O)=O,-3.4520216786,G1,0.2198999999999999,10.6536,1.0,2.0,4.0,0.0,0.0,0.0,0.0,0.0,57.53,44.12264348555901,0.0
potassium dodecyl hydrogen phosphate,[K+].CCCCCCCCCCCCO[P](O)([O-])=O,-3.7844860574,G1,0.3885999999999994,67.62130000000005,3.0,1.0,6.0,12.0,0.0,0.0,0.0,0.0,69.59,153.9278023899288,0.0
aluminium(3+) ion trifluoride,[F-].[F-].[F-].[Al+3],-4.1998793146,G1,-9.3688,5.754,0.0,0.0,4.0,0.0,0.0,0.0,0.0,0.0,0.0,32.42797964509352,-0.0
2-(4-phenylbenzoyl)benzoic acid,OC(=O)c1ccccc1C(=O)c2ccc(cc2)c3ccccc3,-4.8282334666,G1,4.282800000000003,88.71180000000003,2.0,1.0,3.0,4.0,3.0,0.0,0.0,3.0,54.37,133.3927537127018,1.940424929631592
"1,3,5,7-tetranitro-1,3,5,7-tetrazocane",[O-][N+](=O)N1CN(CN(CN(C1)[N+]([O-])=O)[N+]([O-])=O)[N+]([O-])=O,-4.8251168095,G5,-2.195199999999998,54.8016,8.0,0.0,16.0,4.0,0.0,1.0,1.0,1.0,185.52,108.36002786924271,3.018981601296637
2-[(E)-2-(1-cyano-1-methylpropyl)diazen-1-yl]-2-methylbutanenitrile,CCC(C)(N=NC(C)(CC)C#N)C#N,-2.6961915261,G1,2.823160000000001,53.47400000000003,4.0,0.0,4.0,4.0,0.0,0.0,0.0,0.0,72.3,85.25566726482553,4.761626319375112
(2S)-2-aminopentanedioic acid; 2-(bis(2-hydroxyethyl)amino)ethanol,N[C@@H](CCC(O)=O)C(O)=O.OCCN(CCO)CCO,0.111437809,G1,-2.4715999999999974,70.17840000000002,7.0,6.0,9.0,10.0,0.0,0.0,0.0,0.0,164.54999999999998,116.78844065360856,0.0
"4-(2,3,4-trihydroxybenzoyl)phenyl 5-oxo-6-[(1E)-tetraaza-1,3-dien-1-yl]-5,8-dihydronaphthalene-1-sulfonate",Oc1ccc(c(O)c1O)C(=O)c2ccc(O[S](=O)(=O)c3cccc4C(=O)C(=CCc34)N=NN=N)cc2,-5.1052907305,G1,3.8229700000000015,121.68790000000004,10.0,4.0,13.0,7.0,3.0,0.0,1.0,4.0,199.13,202.9822810845395,1.5877243597854431
"2-chlorobuta-1,3-diene",ClC(=C)C=C,-2.5509254551,G1,1.9249,25.189999999999998,0.0,0.0,1.0,1.0,0.0,0.0,0.0,0.0,0.0,36.75813753353254,3.204805417886435
(ethenesulfonyl)methanesulfonylethene,C=C[S](=O)(=O)C[S](=O)(=O)C=C,-3.9198954495,G1,0.0605000000000002,43.100600000000014,4.0,0.0,6.0,4.0,0.0,0.0,0.0,0.0,68.28,66.07061018462065,4.810208616850594
tetrafluoromethane,FC(F)(F)F,-3.6703396281,G1,1.4756999999999998,7.163,0.0,0.0,4.0,0.0,0.0,0.0,0.0,0.0,0.0,25.40139263953448,3.0237157840738176
4-(2-phenylpropan-2-yl)phenol,CC(C)(c1ccccc1)c2ccc(O)cc2,-4.0964847072,G1,3.7181000000000015,66.67680000000004,1.0,1.0,1.0,2.0,2.0,0.0,0.0,2.0,20.23,96.37755742094684,2.4257059111812183
"4,6-dichloro-5-nitro-2-(propylsulfanyl)pyrimidine",CCCSc1nc(Cl)c(c(Cl)n1)[N+]([O-])=O,-4.3869446244,G1,3.193700000000001,59.72140000000001,5.0,0.0,8.0,4.0,1.0,0.0,0.0,1.0,68.91999999999999,100.34814362620818,3.0255154167185
methyl methanesulfonate,CO[S](C)(=O)=O,-0.0419214127999999,G3,-0.4075999999999999,21.85279999999999,3.0,0.0,4.0,1.0,0.0,0.0,0.0,0.0,43.370000000000005,37.05214062957765,3.850621638983669
N-phenylaniline; formaldehyde; propan-2-one,CC(C)=O.C=O.N(c1ccccc1)c2ccccc2,-5.969586401,G1,3.840600000000002,79.64270000000005,3.0,1.0,3.0,2.0,2.0,0.0,0.0,2.0,46.17,113.8328344739015,4.665882135610047e-07
"2,2,4,4,6,12,15-heptamethyl-6-[(trimethylsilyl)oxy]-3,5,10,13,16-pentaoxa-2,4,6-trisilaheptadecane",COC(C)COC(C)COCCC[Si](C)(O[Si](C)(C)C)O[Si](C)(C)O[Si](C)(C)C,-6.2877399393,G1,5.326500000000006,131.17500000000004,6.0,0.0,10.0,16.0,0.0,0.0,0.0,0.0,55.38000000000001,184.25340061896773,4.608611415806905
"ethyl 3,5-dichloro-4-{[(hexadecyloxy)carbonyl]oxy}benzoate",CCCCCCCCCCCCCCCCOC(=O)Oc1c(Cl)cc(cc1Cl)C(=O)OCC,-7.1338037886,G1,9.1668,134.70649999999998,5.0,0.0,7.0,18.0,1.0,0.0,0.0,1.0,61.83,209.00045774980072,2.078120330809087
"(2S,4S)-4-cyclohexylpyrrolidine-2-carboxylic acid hydrochloride",Cl.OC(=O)[C@@H]1C[C@H](CN1)C2CCCCC2,0.631268384,G1,2.0512,61.35650000000004,2.0,2.0,4.0,2.0,0.0,2.0,2.0,2.0,49.33,97.03572115313442,1.124999528625204e-06
2-azabicyclo[2.2.1]hept-5-en-3-one,O=C1NC2CC1C=C2,0.9361608079,G1,0.0608999999999997,29.17769999999999,1.0,1.0,2.0,0.0,0.0,1.0,2.0,2.0,29.1,47.57408054422168,2.3488387634327257
cyclohexylbenzene,C1CCC(CC1)c2ccccc2,-4.3415022783,G1,3.734300000000003,52.26800000000004,0.0,0.0,0.0,1.0,1.0,1.0,1.0,2.0,0.0,74.61522465234738,2.082510086938828
"sodium 5-butyl-1H-1,2,3-benzotriazol-1-ide",[Na+].CCCCc1ccc2[n-]nnc2c1,0.4040256561999999,G1,-1.066399999999999,51.470000000000034,2.0,0.0,4.0,3.0,2.0,0.0,0.0,2.0,39.88,105.57159925124736,9.79999704600094e-07
"4,7,7-trimethylbicyclo[3.1.1]hept-3-ene",CC1=CCC2CC1C2(C)C,-3.7725704235,G4,2.9987000000000013,43.75200000000002,0.0,0.0,0.0,0.0,0.0,1.0,3.0,3.0,0.0,63.322464718156304,2.296626579720339
2-(4-{2-[4-(oxiran-2-ylmethoxy)phenyl]propan-2-yl}phenoxymethyl)oxirane,CC(C)(c1ccc(OCC2CO2)cc1)c3ccc(OCC4CO4)cc3,-4.7996200318,G5,3.567700000000002,95.48200000000006,4.0,0.0,4.0,8.0,2.0,2.0,2.0,4.0,43.52,148.21549496609953,1.412414127527279
"N,N-dimethylhexadecan-1-amine",CCCCCCCCCCCCCCCCN(C)C,-4.6524349135000005,G4,6.029300000000006,88.86600000000008,1.0,0.0,1.0,15.0,0.0,0.0,0.0,0.0,3.24,122.70310064277528,2.914073356109064
3-methyl-7-propan-2-ylbicyclo[2.2.2]oct-3-ene-6-carbaldehyde,CC(C)C1CC2=C(C)CC1C(C2)C=O,-3.8508542835,G1,3.2039000000000017,57.923000000000044,1.0,0.0,1.0,2.0,0.0,1.0,3.0,3.0,17.07,86.57881316138989,2.2642118992424747
"N,N-dimethyldodecan-1-amine",CCCCCCCCCCCCN(C)C,-4.4261227438,G5,4.468900000000004,70.39800000000007,1.0,0.0,1.0,11.0,0.0,0.0,0.0,0.0,3.24,97.24333218518883,2.8668131304135893
1-chloro-4-(3-chlorophenoxy)benzene,Clc1ccc(Oc2cccc(Cl)c2)cc1,-5.3873553168,G5,4.785700000000003,62.97800000000003,1.0,0.0,3.0,2.0,2.0,0.0,0.0,2.0,9.23,98.20857500883122,2.181769270376125
ethyl (2S)-5-carbamimidamido-2-dodecanamidopentanoate hydrochloride,Cl.CCCCCCCCCCCC(=O)N[C@@H](CCCNC(N)=N)C(=O)OCC,-0.2316119628,G1,3.6402699999999992,116.80650000000006,4.0,4.0,8.0,17.0,0.0,0.0,0.0,0.0,117.3,176.38779994700258,0.0
"(1E)-1-(2,6,6-trimethylcyclohex-1-en-1-yl)pent-1-en-3-one; (1E)-1-(2,6,6-trimethylcyclohex-2-en-1-yl)pent-1-en-3-one; (3E)-3-methyl-4-(2,6,6-trimethylcyclohex-1-en-1-yl)but-3-en-2-one; (3E)-3-methyl-4-(2,6,6-trimethylcyclohex-2-en-1-yl)but-3-en-2-one",CCC(=O)/C=C/C1C(=CCCC1(C)C)C,-3.9923409786,G1,3.904200000000003,64.70000000000005,1.0,0.0,1.0,3.0,0.0,0.0,1.0,1.0,17.07,93.25998339713146,2.810012610250731
"(3E)-3-methyl-4-(2,6,6-trimethylcyclohex-2-en-1-yl)but-3-en-2-one",CC(=O)C(\C)=C/C1C(=CCCC1(C)C)C,-3.9923409786,G3,3.904200000000003,64.70000000000005,1.0,0.0,1.0,2.0,0.0,0.0,1.0,1.0,17.07,93.25998339713148,3.0004016609086728
"(1R,2S,5R)-5-methyl-2-(propan-2-yl)cyclohexyl acetate",CC(C)[C@@H]1CC[C@@H](C)C[C@H]1OC(C)=O,-3.9751165598,G1,3.0103000000000018,56.89700000000005,2.0,0.0,2.0,2.0,0.0,1.0,1.0,1.0,26.3,87.02285046221364,2.583440987814273
3-oxo-N-[4-(3-oxobutanamido)phenyl]butanamide,CC(=O)CC(=O)Nc1ccc(NC(=O)CC(C)=O)cc1,-3.1275010898000004,G3,1.5217999999999998,74.29740000000002,4.0,2.0,6.0,6.0,1.0,0.0,0.0,1.0,92.34,116.096752802061,2.55723407622722
[2-(dodecanoyloxy)ethyl]trimethylazanium chloride,[Cl-].CCCCCCCCCCCC(=O)OCC[N+](C)(C)C,-2.2111003064,G1,1.1607000000000007,85.70240000000007,2.0,0.0,4.0,13.0,0.0,0.0,0.0,0.0,26.3,137.9762905970741,0.0
benzyl benzoate,O=C(OCc1ccccc1)c2ccccc2,-4.1776244939,G1,3.0436000000000014,62.00350000000004,2.0,0.0,2.0,3.0,2.0,0.0,0.0,2.0,26.3,94.49344888390488,1.9460332806831828
"1,1'-sulfonyldibenzene",O=[S](=O)(c1ccccc1)c2ccccc2,-4.1928799405,G1,2.519400000000001,58.33580000000004,2.0,0.0,3.0,2.0,2.0,0.0,0.0,2.0,34.14,89.11389570734761,2.5505014056299604
1-(morpholin-4-yl)prop-2-en-1-one,C=CC(=O)N1CCOCC1,0.8502575853000001,G1,0.0311999999999998,37.596,2.0,0.0,3.0,1.0,0.0,1.0,1.0,1.0,29.540000000000003,60.26837052824971,2.380539912791972
1-methoxypropan-2-ol,COCC(C)O,1.0451691789,G1,0.0136000000000001,23.556799999999992,2.0,1.0,2.0,2.0,0.0,0.0,0.0,0.0,29.46,37.741856352722266,2.6272148478988635
disodium 2-(6-oxido-3-oxo-3H-xanthen-9-yl)benzoate,[Na+].[Na+].[O-]C(=O)c1ccccc1C2=C3C=CC(=O)C=C3Oc4cc([O-])ccc24,-1.5755053644,G4,-3.990099999999997,88.31850000000001,5.0,0.0,7.0,2.0,2.0,0.0,2.0,4.0,93.4,198.11435083180493,1.3066661902779571e-06
azanium; molybdenum; oxygen(-2) anion; hydrate,[NH4+].O.[O--].[Mo],-1.170241174,G1,-0.5698000000000001,10.2851,0.0,1.0,4.0,0.0,0.0,0.0,0.0,0.0,96.5,38.85382307246037,-0.0
2-sulfanylacetic acid,OC(=O)CS,-1.9643492148,G2,0.0008,21.4888,2.0,2.0,3.0,1.0,0.0,0.0,0.0,0.0,37.3,35.21501565786766,2.847378923087672
"7-hydroxy-3,7-dimethyloctanal; 1H-indole",CC(CCCC(C)(C)O)CC=O.[nH]1ccc2ccccc12,-4.9224509398,G1,4.320600000000003,88.29250000000006,2.0,2.0,3.0,6.0,2.0,0.0,0.0,2.0,53.09,126.93323622198156,2.1583332723425945e-07
indium(3+) ion trinitrate,O.[In+3].[O-][N+]([O-])=O.[O-][N+]([O-])=O.[O-][N](=O)=O,-2.5035796109,G1,-1.9228,40.45200000000001,9.0,0.0,14.0,0.0,0.0,0.0,0.0,0.0,230.1,92.9785733590432,-2.699999991e-08
sodium methanethiolate,[Na+].C[S-],-1.8456684523,G1,-2.8328999999999995,13.289,1.0,0.0,2.0,0.0,0.0,0.0,0.0,0.0,0.0,48.30771731394322,0.0
ethyl 2-[di(phenyl)methylideneamino]acetate,CCOC(=O)CN=C(c1ccccc1)c2ccccc2,-3.4270444492000003,G1,3.0871000000000013,80.02300000000005,3.0,0.0,3.0,5.0,2.0,0.0,0.0,2.0,38.66,118.48359771295485,2.3036355621588926
aluminium(3+) ion phosphate,[Al+3].[O-][P]([O-])([O-])=O,-4.2460828326,G1,-3.2054,13.3605,4.0,0.0,6.0,0.0,0.0,0.0,0.0,0.0,86.25,45.18013383648277,0.0
"N-(carboxymethyl)-3-(dodecanoylamino)-N,N-dimethylpropan-1-aminium hydroxide",CCCCCCCCCCCC(=O)NCCC[N+](C)(C)CC([O-])=O,-3.1367509984,G1,2.2399000000000004,96.32010000000008,3.0,1.0,5.0,16.0,0.0,0.0,0.0,0.0,69.22999999999999,147.9451543796588,3.4274107066171573
2-[2-(dimethylamino)ethoxy]ethan-1-ol,CN(C)CCOCCO,-0.1244748796,G1,-0.4431000000000002,36.45879999999999,3.0,1.0,3.0,5.0,0.0,0.0,0.0,0.0,32.7,56.23157425171884,2.7466909068574954
"4-nitrobenzene-1,3-diamine",Nc1ccc(c(N)c1)[N+]([O-])=O,-2.1850914787,G2,0.7592000000000001,41.9212,4.0,2.0,5.0,1.0,1.0,0.0,0.0,1.0,95.18,62.76416023602219,3.1960696621259204
tetraethylplumbane,CC[Pb](CC)(CC)CC,-5.4128944571,G5,3.514800000000003,47.678000000000026,0.0,0.0,1.0,4.0,0.0,0.0,0.0,0.0,0.0,64.69309592260046,3.824684203207495
cerium(3+) ion trifluoride,[F-].[F-].[F-].[Ce+3],-5.8633448938,G5,-8.988,0.0,0.0,0.0,4.0,0.0,0.0,0.0,0.0,0.0,0.0,55.43722415147092,-0.0
triphenylphosphane,c1ccc(cc1)P(c2ccccc2)c3ccccc3,-6.201301100399999,G3,3.4448000000000016,85.14800000000004,0.0,0.0,1.0,3.0,3.0,0.0,0.0,3.0,0.0,115.0452769124983,2.1210106325672244
"3,7-dimethylocta-1,6-diene",CC(CCC=C(C)C)C=C,-5.9645864462,G1,3.5549000000000026,48.02600000000003,0.0,0.0,0.0,4.0,0.0,0.0,0.0,0.0,0.0,64.6445239930305,3.362923864895267
2-ethylhexyl 2-({2-[(2-ethylhexyl)oxy]-2-oxoethyl}sulfanyl)acetate,CCCCC(CC)COC(=O)CSCC(=O)OCC(CC)CCCC,-6.654998170599999,G1,5.238800000000006,105.85500000000008,5.0,0.0,5.0,16.0,0.0,0.0,0.0,0.0,52.60000000000001,158.34639588583164,3.79020524391641
"2-(4-methylpent-3-enyl)anthracene-9,10-dione",CC(C)=CCCc1ccc2C(=O)c3ccccc3C(=O)c2c1,-7.985818524400001,G1,4.360800000000004,87.50100000000003,2.0,0.0,2.0,3.0,2.0,0.0,1.0,3.0,34.14,130.0356442551079,1.972150813939487
"O1-nonyl O2-octyl benzene-1,2-dicarboxylate",CCCCCCCCCOC(=O)c1ccccc1C(=O)OCCCCCCCC,-4.7809414151,G1,7.111300000000008,118.37600000000008,4.0,0.0,4.0,17.0,1.0,0.0,0.0,1.0,52.60000000000001,176.91543795213389,2.3166728863167485
lithium docosanoate,[Li+].CCCCCCCCCCCCCCCCCCCCCC([O-])=O,-6.8769767405,G1,3.5622000000000007,103.02100000000009,2.0,0.0,3.0,20.0,0.0,0.0,0.0,0.0,40.13,169.65635680833054,0.0
lithium myristate,[Li+].CCCCCCCCCCCCCC([O-])=O,-6.7070311388,G1,0.4413999999999998,66.08500000000005,2.0,0.0,3.0,12.0,0.0,0.0,0.0,0.0,40.13,118.7368198931577,0.0
lithium octadec-9-enoate,[Li+].CCCCCCCC\C=C/CCCCCCCC([O-])=O,-6.7972389302,G1,1.7777999999999985,84.45900000000006,2.0,0.0,3.0,15.0,0.0,0.0,0.0,0.0,40.13,143.50698531855988,0.0
lithium(1+) ion 12-hydroxyoctadecanoate,[Li+].CCCCCCC(O)CCCCCCCCCCC([O-])=O,-6.8235536072,G1,0.9725999999999996,85.94280000000008,3.0,1.0,4.0,16.0,0.0,0.0,0.0,0.0,60.36,148.99082210294014,0.0
methanidylidyneoxidanium triphenylphosphane (2Z)-4-oxopent-2-en-2-olate rhodium,[Rh].CC(=O)[CH-]C(C)=O.[C-]#[O+].c1ccc(cc1)P(c2ccccc2)c3ccccc3,-7.3120335908,G1,3.773480000000003,114.73950000000002,2.0,0.0,5.0,5.0,3.0,0.0,0.0,3.0,54.04,186.3334114641636,6.747339748060178e-07
3-[3-(9-methyldecoxy)propylamino]propanenitrile,CC(C)CCCCCCCCOCCCNCCC#N,-3.618466492200001,G1,4.283080000000004,85.69270000000007,3.0,1.0,3.0,15.0,0.0,0.0,0.0,0.0,45.05,125.63431195275896,2.943494389636279
[(1S)-3-(4-methylpent-3-enyl)-1-cyclohex-3-enyl]methyl acetate,CC(=O)OC[C@H]1CCC=C(CCC=C(C)C)C1,-4.9756247854,G1,4.022400000000004,70.72200000000004,2.0,0.0,2.0,5.0,0.0,0.0,1.0,1.0,26.3,104.73847074103496,2.2994338073206246
"Glycerides, C16-22",CCCCCCCCCCCCCCCC(=O)OCC(O)CO,-4.7267916006,G1,4.364100000000005,94.36360000000006,4.0,2.0,4.0,17.0,0.0,0.0,0.0,0.0,66.76,142.17174392091118,3.1389657434371654
"2-{2-[(8E)-heptadec-8-en-1-yl]-4,5-dihydro-1H-imidazol-1-yl}ethan-1-ol",CCCCCCCC\C=C/CCCCCCCC1=NCCN1CCO,-3.8458307588,G3,5.730300000000007,110.41280000000008,3.0,1.0,3.0,17.0,0.0,0.0,1.0,1.0,35.83,156.15699115270436,1.818913362245287
"3,5-di-tert-butyl-2-hydroxybenzoic acid hydrate zinc hydrochloride",O.Cl.[Zn].CC(C)(C)c1cc(C(O)=O)c(O)c(c1)C(C)(C)C,-4.8694711026,G1,3.280000000000002,83.32790000000006,2.0,2.0,6.0,1.0,1.0,0.0,0.0,1.0,89.03000000000002,144.98304647703094,-1.0799998338000268e-06
chromium tris((2-ethylhexanoate),[Cr+3].CCCCC(CC)C([O-])=O.CCCCC(CC)C([O-])=O.CCCCC(CC)C([O-])=O,-3.0199412712,G1,2.855600000000001,114.93900000000008,6.0,0.0,7.0,15.0,0.0,0.0,0.0,0.0,120.39,200.88536251471604,-1.735714265831633e-07
"[(2R,3R)-5,7-dihydroxy-2-(3,4,5-trihydroxyphenyl)chroman-3-yl] 3,4,5-trihydroxybenzoate",Oc1cc(O)c2C[C@@H](OC(=O)c3cc(O)c(O)c(O)c3)[C@H](Oc2c1)c4cc(O)c(O)c(O)c4,-1.0591609316,G1,2.2332,108.92089999999996,11.0,8.0,11.0,3.0,3.0,0.0,1.0,4.0,197.37,184.74201141230787,1.7472605732203803
"Alcohols, C16-18 and C18-unsatd., ethoxylated",CCOCCCCCCCCCCCCCC\C=C\CC,-4.7999839607,G3,7.060400000000008,95.94500000000008,1.0,0.0,1.0,17.0,0.0,0.0,0.0,0.0,9.23,134.09709339868778,2.946021280396973
2-(4-chloro-2-fluorophenyl)acetonitrile,Fc1cc(Cl)ccc1CC#N,-2.5939062498,G1,2.54518,40.72700000000001,1.0,0.0,3.0,1.0,1.0,0.0,0.0,1.0,23.79,69.0226686595668,3.0147352900100564
"2,2-dimethyl-4-phenylpentanenitrile",CC(CC(C)(C)C#N)c1ccccc1,-3.2350788163,G1,3.729980000000003,58.868000000000045,1.0,0.0,1.0,3.0,1.0,0.0,0.0,1.0,23.79,86.37857760174195,2.696134203688046
4-tert-butylcyclohexyl acetate,CC(=O)OC1CCC(CC1)C(C)(C)C,-3.6996406686,G2,3.1544000000000016,56.96700000000005,2.0,0.0,2.0,1.0,0.0,1.0,1.0,1.0,26.3,87.02285046221365,2.3492269359801927
17-hydroxyandrostan-3-one,C[C@]12CC[C@H]3[C@@H](CC[C@H]4CC(=O)CC[C@]34C)[C@@H]1CC[C@@H]2O,-4.9189988507,G2,3.9591000000000034,82.74080000000005,2.0,1.0,2.0,0.0,0.0,4.0,4.0,4.0,37.3,128.24064032509136,1.6370645181431462