Name,SMILES,Solubility,Group,MolLogP,MolMR,NumHAcceptors,NumHDonors,NumHeteroatoms,NumRotatableBonds,NumAromaticRings,NumSaturatedRings,NumAliphaticRings,RingCount,TPSA,LabuteASA,BalabanJ
"2-propanone, 1,1-diethoxy-",CCOC(OCC)C(C)=O,-0.2059,G1,0.9745,37.721,3.0,0.0,3.0,5.0,0.0,0.0,0.0,0.0,35.53,61.31751627326672,3.609578052682948
"1,8,15,22-tetraazacyclooctacosane-2,9,16,23-tetr",O=C1CCCCCNC(=O)CCCCCNC(=O)CCCCCNC(=O)CCCCCN1,-2.8126,G1,2.706400000000001,125.91080000000008,4.0,4.0,8.0,0.0,0.0,1.0,1.0,1.0,116.4,192.97262564002955,2.2565323179830536
"isopropyl-4,4'-dichlorobenzilate",CC(C)OC(=O)C(O)(c1ccc(Cl)cc1)c2ccc(Cl)cc2,-5.3544,G3,4.180900000000003,87.13080000000002,3.0,1.0,5.0,4.0,2.0,0.0,0.0,2.0,46.53,138.989041433054,2.547618683970087
endrocide (endox) (coumatetralyl),OC1=C(C2CCCc3ccccc23)C(=O)c4ccccc4O1,-4.8638,G1,3.966800000000002,85.37180000000004,3.0,1.0,3.0,1.0,3.0,0.0,1.0,4.0,50.44,127.38467183760224,1.980229266557628
"ethanol, 2-mercapto-, 1-acetate",CC(=O)OCCS,-1.5,G1,0.4793,30.48599999999999,3.0,1.0,3.0,2.0,0.0,0.0,0.0,0.0,26.3,48.26421136397174,2.8219389370591843
terbacil,CC1=C(Cl)C(=O)N(C(=O)N1)C(C)(C)C,-2.4845,G1,1.25342,56.065700000000014,3.0,1.0,5.0,0.0,1.0,0.0,0.0,1.0,54.86,86.53169156693754,3.711923181476811
"thioperoxydiphosphoric acid, tetramethyl ester",CO[P](=S)(OC)SS[P](=S)(OC)OC,-4.3981,G1,3.402400000000002,71.78800000000003,8.0,0.0,10.0,7.0,0.0,0.0,0.0,0.0,36.92,102.01812536253551,4.291512616498759
"d-xylose, (aminocarbonyl)hydrazone",NC(=O)NN=C[C@H](O)[C@@H](O)[C@H](O)CO,-0.1288,G1,-3.2845,46.31730000000002,6.0,6.0,8.0,5.0,0.0,0.0,0.0,0.0,148.4,79.65763009535625,3.9938304188992175
"propanoic acid, 3-phosphono-",OC(=O)CC[P](O)(O)=O,0.5007,G1,-0.3612,29.163899999999988,2.0,3.0,6.0,3.0,0.0,0.0,0.0,0.0,94.83,51.47629902960242,3.5254531798739226
".beta.-d-glucopyranose, 4-o-.beta.-d-galactopyra",OC[C@H]1O[C@@H](O[C@H]2[C@H](O)[C@@H](O)[C@H](O)O[C@@H]2CO)[C@H](O)[C@@H](O)[C@H]1O,-0.8167,G1,-5.397199999999993,68.61940000000004,11.0,8.0,11.0,4.0,0.0,2.0,2.0,2.0,189.53,130.43645768522254,2.114861902481824
"ethanamine, 2,2'-thiobis[n,n-diethyl-",CCN(CC)CCSCCN(CC)CC,-2.3663,G1,2.403200000000001,72.90100000000005,3.0,0.0,3.0,10.0,0.0,0.0,0.0,0.0,6.48,100.39639165196422,3.30039818684965
5-oxo-3-phenyl-hexanoic acid,CC(=O)CC(CC(O)=O)c1ccccc1,-1.4463,G1,2.224,56.73380000000003,2.0,1.0,3.0,5.0,1.0,0.0,0.0,1.0,54.37,88.73833375816017,2.8051070560609115
"benzenamine, n-ethyl-n,2,4,6-tetranitro-",CCN(c1c(cc(cc1[N+]([O-])=O)[N+]([O-])=O)[N+]([O-])=O)[N+]([O-])=O,-3.7007,G1,1.4292000000000002,66.41959999999999,8.0,0.0,13.0,6.0,1.0,0.0,0.0,1.0,175.79999999999998,114.5031599287277,3.805066044386881
"benzenamine, 4,4'-(1,2-ethynediyl)bis-",Nc1ccc(cc1)C#Cc2ccc(N)cc2,-2.4326,G1,2.2508,67.68880000000001,2.0,2.0,2.0,0.0,2.0,0.0,0.0,2.0,52.04,94.89738834023892,2.2125575391923467
"benzoic acid, 2-(2-hydroxybenzoyl)-",OC(=O)c1ccccc1C(=O)c2ccccc2O,-2.3428,G1,2.321400000000001,64.94060000000002,3.0,2.0,4.0,3.0,2.0,0.0,0.0,2.0,74.6,103.12989325883376,2.5368785771058344
"phthalic acid, bis(2,2,2-trinitroethyl) ester",[O-][N+](=O)C(COC(=O)c1ccccc1C(=O)OCC([N+]([O-])=O)([N+]([O-])=O)[N+]([O-])=O)([N+]([O-])=O)[N+]([O-])=O,-3.5782,G1,-1.0319999999999991,94.43540000000004,16.0,0.0,22.0,12.0,1.0,0.0,0.0,1.0,311.43999999999994,182.08904479997676,3.227915937645579
"2-butanol, 1,1,1-trichloro-",CCC(O)C(Cl)(Cl)Cl,-0.9481,G1,2.127500000000001,36.58780000000001,1.0,1.0,4.0,1.0,0.0,0.0,0.0,0.0,20.23,63.53810980386041,3.623281003705976
"1,3-dioxolane, 2-(2-methylpropyl)-",CC(C)CC1OCCO1,-0.3695,G1,1.4054,35.14699999999999,2.0,0.0,2.0,2.0,0.0,1.0,1.0,1.0,18.46,56.15016301969372,2.1127901449768736
"2(1h)-azecinone, octahydro-",O=C1CCCCCCCCN1,-1.0737,G1,1.8469,45.32870000000002,1.0,1.0,2.0,0.0,0.0,1.0,1.0,1.0,29.1,68.36434107312499,2.168489511729277
"methanamine, n-chloro-",CNCl,0.2806,G1,0.3596,14.9127,1.0,1.0,2.0,0.0,0.0,0.0,0.0,0.0,12.03,24.704050270872283,1.6329931618554523
"propanoic acid, 2,3-dimercapto-",OC(=O)C(S)CS,-0.2374,G1,0.2991999999999999,34.2628,3.0,3.0,4.0,2.0,0.0,0.0,0.0,0.0,37.3,52.735024435665984,3.34341705895396
nifuroxime,O/N=C/c1oc(cc1)[N+]([O-])=O,-2.1934,G1,0.9959,34.74290000000001,5.0,1.0,6.0,2.0,1.0,0.0,0.0,1.0,88.87,60.88724495800432,2.8998954899749183
"2h-azepin-2-one, 1-benzoylhexahydro-",O=C1CCCCCN1C(=O)c2ccccc2,-2.1667,G1,2.2294,60.953500000000034,2.0,0.0,3.0,1.0,1.0,1.0,1.0,2.0,37.38,95.0630446370349,2.1692947115297865
c.i. disperse orange 13,O=C1C=CC(C=C1)=NNc2ccc(N=Nc3ccccc3)c4ccccc24,-6.0092,G1,5.718200000000004,108.9107,5.0,1.0,5.0,4.0,3.0,0.0,1.0,4.0,66.18,155.9983979600141,1.6533973394793882
"2-bornanecarboxylic acid, 2-amino-",CC1(C)C2CCC1(C)C(N)(C2)C(O)=O,-1.5961,G1,1.6147,53.78320000000003,2.0,2.0,3.0,1.0,0.0,2.0,2.0,2.0,63.32,84.67265641398967,2.5043055956927045
"diethylamine, hydrobromide",[Br-].CC[NH2+]CC,0.8123,G1,-3.406399999999998,23.0074,0.0,1.0,2.0,2.0,0.0,0.0,0.0,0.0,16.61,49.896641667074896,0.0
"benzenesulfonamide, 3-amino-4-methyl-",Cc1ccc(cc1N)[S](N)(=O)=O,-1.9169,G1,0.2246200000000004,46.96460000000001,3.0,2.0,5.0,1.0,1.0,0.0,0.0,1.0,86.18,71.23690252033408,3.327295999016508
"lactamide, n-octyl-",CCCCCCCCNC(=O)C(C)O,-2.2827,G1,1.8439,58.06650000000005,2.0,2.0,3.0,8.0,0.0,0.0,0.0,0.0,49.33,86.89429020764345,3.0958455805317366
"lactamide, n-decyl-",CCCCCCCCCCNC(=O)C(C)O,-3.3605,G1,2.6241000000000008,67.30050000000004,2.0,2.0,3.0,10.0,0.0,0.0,0.0,0.0,49.33,99.62417443643668,3.06855151382054
"propanoic acid, 2-hydroxy-, 1-methyl-2-oxo-2-(2-",CC(O)C(=O)OC(C)C(=O)OCC=C,-0.6826,G1,0.0280999999999995,48.39080000000003,5.0,1.0,5.0,5.0,0.0,0.0,0.0,0.0,72.83,82.31355332211545,3.941906015901648
"d-glucitol, 1-deoxy-1-(methylamino)-",CNCC(O)C(O)C(O)C(O)CO,0.4084,G3,-3.3582999999999994,45.03970000000002,6.0,6.0,6.0,6.0,0.0,0.0,0.0,0.0,113.18,76.44993465879729,3.991684655394681
"propanoic acid, 2-(acetyloxy)-, methyl ester",COC(=O)C(C)OC(C)=O,-0.2617,G1,0.1109999999999999,33.24399999999999,4.0,0.0,4.0,2.0,0.0,0.0,0.0,0.0,52.6,59.11409625891387,3.723665997990161
"glycine, n,n-bis(2-cyanoethyl)-",OC(=O)CN(CCC#N)CCC#N,0.4578,G1,0.2003600000000001,44.53580000000002,4.0,1.0,5.0,6.0,0.0,0.0,0.0,0.0,88.12,76.79459471398638,3.822556458306247
"5-quinoxalinamine, 6,7-dimethoxy-",COc1cc2nccnc2c(N)c1OC,-1.7102,G1,1.2291999999999998,57.05440000000002,5.0,1.0,5.0,2.0,2.0,0.0,0.0,2.0,70.26,86.84922899794486,2.812528266649542
"urea, 1-methyl-1-p-tolyl-",CN(C(N)=O)c1ccc(C)cc1,-0.423,G1,1.5099200000000002,49.16540000000002,1.0,1.0,3.0,1.0,1.0,0.0,0.0,1.0,46.33,71.78747592994664,2.8925610901856844
"2,4-dimethyl-1-pentanol",CC(C)CC(C)CO,-1.6007,G1,1.6609,35.70479999999999,1.0,1.0,1.0,3.0,0.0,0.0,0.0,0.0,20.23,51.723137466405205,3.0988280941131414
"benzamide, 4-(aminosulfonyl)-",NC(=O)c1ccc(cc1)[S](N)(=O)=O,-2.3015,G1,-0.5670999999999999,46.33310000000001,3.0,2.0,6.0,2.0,1.0,0.0,0.0,1.0,103.25,75.39842462037784,3.15526874357476
"2,4(1h,3h)-pyrimidinedione, 5-methyl-1-(phenylme",CC1=CN(Cc2ccccc2)C(=O)NC1=O,-2.2558,G1,0.8933199999999999,61.60370000000002,3.0,1.0,4.0,2.0,2.0,0.0,0.0,2.0,54.86,92.19069320293008,2.39685050075294
"1h-imidazole-4-sulfonic acid, 5-methyl-",Cc1[nH]cnc1[S](O)(=O)=O,0.188,G1,-0.0351799999999999,33.1393,3.0,2.0,6.0,1.0,1.0,0.0,0.0,1.0,83.04999999999998,57.853789645895,3.318295566501475
"2,3-quinoxalinedione, 1,4-dihydro-6-methyl-",Cc1ccc2NC(=O)C(=O)Nc2c1,-3.0418,G1,0.5248199999999997,49.9264,2.0,2.0,4.0,0.0,2.0,0.0,0.0,2.0,65.72,73.24034992760934,2.973174805197535
"benzoic acid, 4-bromo-3-nitro-",OC(=O)c1ccc(Br)c(c1)[N+]([O-])=O,-2.9677,G1,2.0555000000000003,47.7557,3.0,1.0,6.0,2.0,1.0,0.0,0.0,1.0,80.44,81.27262441427452,3.267052212361691
"9-acridinol, 9,10-dihydro-10-methyl-9-phenyl-",CN1c2ccccc2C(O)(c3ccccc3)c4ccccc14,-3.9031,G1,4.052100000000002,89.48980000000005,2.0,1.0,2.0,1.0,3.0,0.0,1.0,4.0,23.47,129.82371202928843,2.09329617920288
"2-cyclohexene-1,2-dicarboxylic acid, 1-methyl-",CC1(CCCC=C1C(O)=O)C(O)=O,-1.9642,G1,1.2722,45.31260000000002,2.0,2.0,4.0,2.0,0.0,0.0,1.0,1.0,74.6,75.8748654617685,3.077200140886093
"dl-aspartic acid, n,n-bis(2-cyanoethyl)-",OC(=O)CC(N(CCC#N)CCC#N)C(O)=O,-1.5337,G1,0.0436600000000002,55.70960000000002,5.0,2.0,7.0,8.0,0.0,0.0,0.0,0.0,125.42000000000002,98.4802347950194,4.675980003222201
"1,2-benzenedicarboxamide, n,n,n',n'-tetramethyl-",CN(C)C(=O)c1ccccc1C(=O)N(C)C,0.5083,G1,1.0902,62.47700000000003,2.0,0.0,4.0,2.0,1.0,0.0,0.0,1.0,40.620000000000005,95.46376734637089,3.202977813407694
"acetic acid, [2-methoxy-4-(2-propenyl)phenoxy]-",COc1cc(CC=C)ccc1OCC([O-])=O,-2.2786,G1,0.5523999999999998,57.397000000000034,4.0,0.0,4.0,6.0,1.0,0.0,0.0,1.0,58.59,94.11429908494593,2.8333575016344072
trichothecin,C\C=C/C(=O)O[C@@H]1C[C@H]2O[C@@H]3C=C(C)C(=O)C[C@]3(C)[C@]1(C)[C@@]24CO4,-2.9196,G1,2.3461000000000007,86.25000000000004,5.0,0.0,5.0,2.0,0.0,3.0,4.0,4.0,65.13,141.56935829709124,1.7773650746857308
amyl lactate,CCCCCOC(=O)C(C)O,-1.2047,G1,1.1006,42.164800000000014,3.0,1.0,3.0,5.0,0.0,0.0,0.0,0.0,46.53,67.36314691035246,3.178167514720856
cloxyfonac,OCc1cc(Cl)ccc1OCC(O)=O,-2.0347,G1,1.2957,50.505600000000015,3.0,2.0,5.0,4.0,1.0,0.0,0.0,1.0,66.75999999999999,85.69303052351115,2.7963995377402164
allyxycarb [bsi:iso],CNC(=O)Oc1cc(C)c(N(CC=C)CC=C)c(C)c1,-3.5932,G1,3.200040000000002,83.60670000000005,3.0,1.0,4.0,6.0,1.0,0.0,0.0,1.0,41.57,120.2863813824566,3.1168573771592083
3-chlorodiphenyl ether,Clc1cccc(Oc2ccccc2)c1,-4.2107,G1,4.1323000000000025,57.96800000000003,1.0,0.0,2.0,2.0,2.0,0.0,0.0,2.0,9.23,87.90530878194956,2.1930492216170263
(r)-(-)-carvone,CC(=C)[C@@H]1CC=C(C)C(=O)C1,-2.0608,G1,2.4879000000000007,46.30200000000003,1.0,0.0,1.0,1.0,0.0,0.0,1.0,1.0,17.07,67.80021493954504,2.698294200312726
"salicylanilide, 4'-chloro-5-nitro-",Oc1ccc(cc1C(=O)Nc2ccc(Cl)cc2)[N+]([O-])=O,-5.122000000000001,G1,3.206100000000001,74.16640000000001,4.0,2.0,7.0,3.0,2.0,0.0,0.0,2.0,92.47,118.3152994251869,2.263316000336962
"salicylanilide, 4'-chloro-3-nitro-",Oc1c(cccc1[N+]([O-])=O)C(=O)Nc2ccc(Cl)cc2,-4.5452,G1,3.206100000000001,74.16640000000001,4.0,2.0,7.0,3.0,2.0,0.0,0.0,2.0,92.47,118.31529942518692,2.2755438180360623
"alanine, n-(2-bromo-3-methylbutyryl)-, dl-",CC(C)C(Br)C(=O)NC(C)C(O)=O,-0.4825,G1,0.9952,52.79350000000002,2.0,2.0,5.0,4.0,0.0,0.0,0.0,0.0,66.4,85.82853357013876,4.075517845793803
pentoxifylline,Cn1cnc2N(C)C(=O)N(CCCCC(C)=O)C(=O)c12,-0.5579999999999999,G1,0.1929999999999996,74.74700000000003,7.0,0.0,7.0,5.0,2.0,0.0,0.0,2.0,78.89,115.01518969017614,2.381621797689879
"benzoic acid, 4-hydroxy-, pentyl ester",CCCCCOC(=O)c1ccc(O)cc1,-3.8135,G1,2.739200000000001,57.91430000000004,3.0,1.0,3.0,5.0,1.0,0.0,0.0,1.0,46.53,89.69035688762328,2.3674874478117127
norgestrel,CC[C@]12CC[C@H]3[C@@H](CCC4=CC(=O)CC[C@H]34)[C@@H]1CC[C@@]2(O)C#C,-5.2567,G1,3.8826000000000023,90.49280000000005,2.0,1.0,2.0,1.0,0.0,3.0,4.0,4.0,37.3,139.2801469135596,1.6711962826978068
"1,3-benzodioxole-5-acetaldehyde",O=CCc1ccc2OCOc2c1,-1.96,G1,1.1567,42.33300000000002,3.0,0.0,3.0,2.0,1.0,0.0,1.0,2.0,35.53,69.90901086821508,2.3167377858533187
"4-oxo-1,2,3,4-tetrahydro-<2>naphthoic acid",OC(=O)C1CC(=O)c2ccccc2C1,-2.1031,G1,1.5163000000000002,50.219300000000025,2.0,1.0,3.0,1.0,1.0,0.0,1.0,2.0,54.37,81.36756049023431,2.379229712257271
eglinazine ethyl,CCNc1nc(Cl)nc(NCC(=O)OCC)n1,-2.9374,G1,0.9318,64.12340000000002,7.0,2.0,8.0,6.0,1.0,0.0,0.0,1.0,89.03,103.95805767236456,2.606103918106572
"l-serine, n-l-seryl-",NC(CO)C(=O)NC(CO)C(O)=O,-0.5847,G1,-3.1322999999999985,41.71350000000001,5.0,5.0,7.0,5.0,0.0,0.0,0.0,0.0,132.88,74.15945993710892,4.086585688212288
"1,2-cyclopentanedione, dioxime",ONC1=C(CCC1)N=O,-1.9937,G1,1.1271,31.5942,4.0,2.0,4.0,2.0,0.0,0.0,1.0,1.0,61.69,52.49645171921501,2.69391979307175
"2-pyrrolidinone, 5-methyl-1-phenyl-",CC1CCC(=O)N1c2ccccc2,-0.8457,G1,2.2019,52.62400000000003,1.0,0.0,2.0,1.0,1.0,1.0,1.0,2.0,20.31,78.17163830819793,2.3013243978819653
"1,2-benzenedicarboxylic acid, 3-nitro-, 2-methyl",COC(=O)c1c(cccc1[N+]([O-])=O)C(O)=O,-2.0853,G1,1.0796,51.39520000000001,5.0,1.0,7.0,3.0,1.0,0.0,0.0,1.0,106.74,89.41002836697703,3.5280503370242933
"phthalic acid, 3-nitro-, 2-propyl ester",CC(C)OC(=O)c1cccc(c1C([O-])=O)[N+]([O-])=O,-2.3466,G1,0.5235,57.978400000000015,6.0,0.0,7.0,4.0,1.0,0.0,0.0,1.0,109.57000000000002,102.13991259577024,3.3558070907926667
"phthalic acid, 3-nitro-, 2-isopropyl ester",CC(C)OC(=O)c1c(cccc1[N+]([O-])=O)C([O-])=O,-2.4897,G1,0.5235,57.978400000000015,6.0,0.0,7.0,4.0,1.0,0.0,0.0,1.0,109.57,102.13991259577024,3.4007866023848723
"phthalic acid, 3-nitro-, 2-isobutyl ester",CC(C)(C)OC(=O)c1cccc(c1C([O-])=O)[N+]([O-])=O,-3.0467,G1,0.9136,62.59540000000002,6.0,0.0,7.0,3.0,1.0,0.0,0.0,1.0,109.57000000000002,108.50485471016684,3.3581764069780213
"phthalic acid, 3-nitro-, isopentyl ester",CC(C)CCOC(=O)c1cccc(c1C([O-])=O)[N+]([O-])=O,-3.0689,G1,1.1612000000000002,67.16440000000001,6.0,0.0,7.0,6.0,1.0,0.0,0.0,1.0,109.57000000000002,114.86979682456344,3.050581702679916
"phosphinic acid, mesityl-",Cc1cc(C)c(c(C)c1)[PH](O)=O,-2.7896,G1,1.70416,51.50730000000004,1.0,1.0,3.0,1.0,1.0,0.0,0.0,1.0,37.3,73.11183829360755,3.3798143363005275
sec-butyl methyl ether,CCC(C)OC,-0.7306,G1,1.4313,26.761999999999983,1.0,0.0,1.0,2.0,0.0,0.0,0.0,0.0,9.23,39.31256471492286,2.7541847860376616
"1,3-propanediol, 2-(2-propenyloxy)-",OCC(CO)OCC=C,0.481,G1,-0.4578000000000002,34.10859999999999,3.0,2.0,3.0,5.0,0.0,0.0,0.0,0.0,49.69,54.57637130152723,3.1891479320342544
"guanidine, n-methyl-n,n'-dinitro-",CN(C(/N)=N/[N+]([O-])=O)[N+]([O-])=O,-0.6104,G1,-1.3836999999999997,33.3742,4.0,1.0,9.0,2.0,0.0,0.0,0.0,0.0,127.9,60.34546348077192,4.349375571926678
"phthalic acid, 3-nitro-, 2-butyl ester",CCC(C)OC(=O)c1cccc(c1C([O-])=O)[N+]([O-])=O,-2.7193,G1,0.9136,62.59540000000002,6.0,0.0,7.0,5.0,1.0,0.0,0.0,1.0,109.57000000000002,108.50485471016684,3.2747860972054355
"1,2-dimethylcyclohexane (trans)",C[C@H]1CCCC[C@@H]1C,-4.3341,G1,2.832600000000001,36.79599999999999,0.0,0.0,0.0,0.0,0.0,1.0,1.0,1.0,0.0,52.28801467507656,2.2794002709583667
serine,N[C@@H](CO)C(O)=O,-0.3861,G1,-1.6094000000000002,22.697,3.0,3.0,4.0,2.0,0.0,0.0,0.0,0.0,83.55000000000001,40.55901555807127,3.3434170589539605
glutamic acid,NC(CCC(O)=O)C(O)=O,-0.9916,G5,-0.7369000000000001,32.480999999999995,3.0,3.0,5.0,4.0,0.0,0.0,0.0,0.0,100.62,57.450421886908245,3.4907296603908136
"2,4'-dichlorodiphenyl ether",Clc1ccc(Oc2ccccc2Cl)cc1,-5.52,G1,4.785700000000003,62.97800000000003,1.0,0.0,3.0,2.0,2.0,0.0,0.0,2.0,9.23,98.2085750088312,2.2217971938551333
"acetamide, n,n'-(phenylmethylene)bis-",CC(=O)NC(NC(C)=O)c1ccccc1,-1.3144,G1,0.9573999999999998,56.81640000000003,2.0,2.0,4.0,3.0,1.0,0.0,0.0,1.0,58.2,88.67888225878363,2.8051070560609115
azodrin,CNC(=O)\C=C(/C)O[P](=O)(OC)OC,0.6514,G1,1.0537,50.53320000000002,5.0,1.0,7.0,5.0,0.0,0.0,0.0,0.0,73.86,82.84093132867248,4.44286476234683
"benzene, 1,2,4,5-tetrachloro-3-methoxy-",COc1c(Cl)c(Cl)cc(Cl)c1Cl,-5.1307,G1,4.308800000000001,53.03400000000001,1.0,0.0,5.0,1.0,1.0,0.0,0.0,1.0,9.23,90.12295537092712,3.419374715982664
"d-galactose, (aminocarbonyl)hydrazone",NC(=O)N\N=C\C(O)C(O)C(O)C(O)CO,-0.4257,G1,-3.9236,52.32410000000002,7.0,7.0,9.0,6.0,0.0,0.0,0.0,0.0,168.63,90.81680596194887,4.2091137290224685
"nicotinic acid, butyl ester",CCCCOC(=O)c1cccnc1,-1.8367,G1,2.0385,49.42750000000003,3.0,0.0,3.0,4.0,1.0,0.0,0.0,1.0,39.19,77.75082900197714,2.404796656306514
"1,3-propanediol, monobenzoate",OCCCOC(=O)c1ccccc1,-1.2558,G1,1.2258,48.42730000000003,3.0,1.0,3.0,4.0,1.0,0.0,0.0,1.0,46.53,76.96047265883006,2.404796656306514
dioxacarb,CNC(=O)Oc1ccccc1C2OCCO2,-1.5706,G1,1.4502,56.17070000000003,4.0,1.0,5.0,2.0,1.0,1.0,1.0,2.0,56.790000000000006,93.30230251012324,2.1896973439825773
4-chlorophenyl phenyl ether,Clc1ccc(Oc2ccccc2)cc1,-4.7925,G1,4.1323000000000025,57.96800000000003,1.0,0.0,2.0,2.0,2.0,0.0,0.0,2.0,9.23,87.90530878194956,2.155110851234288
"benzene, 1-bromo-2-(1-methylethyl)-",CC(C)c1ccccc1Br,-4.1898,G1,3.5725000000000025,48.23100000000002,0.0,0.0,1.0,1.0,1.0,0.0,0.0,1.0,0.0,70.39377706832813,3.031327898581972
"phosphinic acid, dibutyl-, ethyl ester",CCCC[P](=O)(CCCC)OCC,-1.2005,G1,3.901200000000003,58.782500000000056,2.0,0.0,3.0,8.0,0.0,0.0,0.0,0.0,26.3,82.51354544512651,3.9208737294960496
4-chloro-5-methyl-2-nitrophenol,Cc1cc(O)c(cc1Cl)[N+]([O-])=O,-4.3901,G1,2.262220000000001,44.508200000000016,3.0,1.0,5.0,1.0,1.0,0.0,0.0,1.0,63.37,73.54682093547106,3.3258841466405986
"4-picoline, 2-chloro-6-methoxy-alpha,alpha,alpha",COc1cc(cc(Cl)n1)C(Cl)(Cl)Cl,-4.3635,G1,3.5703000000000005,55.036000000000016,2.0,0.0,6.0,1.0,1.0,0.0,0.0,1.0,22.12,95.70754546627026,3.1621820636516658
"acetamide, n-acetyl-n-(4-ethoxyphenyl)-",CCOc1ccc(cc1)N(C(C)=O)C(C)=O,-1.947,G1,1.9847,61.452000000000034,3.0,0.0,4.0,3.0,1.0,0.0,0.0,1.0,46.61,94.8174789056744,2.9416477109022083
"phosphoric acid, dibutyl ethyl ester",CCCCO[P](=O)(OCC)OCCCC,-1.8456,G1,3.764400000000003,60.95250000000006,4.0,0.0,5.0,10.0,0.0,0.0,0.0,0.0,44.760000000000005,92.91397642039476,3.891106890381444
"phosphoric acid, dibutyl methyl ester",CCCCO[P](=O)(OC)OCCCC,-1.4995,G1,3.3743000000000025,56.33550000000005,4.0,0.0,5.0,9.0,0.0,0.0,0.0,0.0,44.760000000000005,86.54903430599813,3.737825503323074
5-quinolinecarboxylic acid,OC(=O)c1cccc2ncccc12,-2.6774,G1,1.933,48.702300000000015,2.0,1.0,3.0,1.0,2.0,0.0,0.0,2.0,50.19,74.65341359881505,2.83097565836767
"chloramben, methyl ester",COC(=O)c1cc(Cl)cc(N)c1Cl,-3.2634,G1,2.3622,52.21390000000001,3.0,1.0,5.0,1.0,1.0,0.0,0.0,1.0,52.32,85.38277782861687,3.2784430773089346
"2,2,3-trimethyl-3-pentanol",CCC(C)(O)C(C)(C)C,-1.2708,G1,2.1935,40.369800000000005,1.0,1.0,1.0,1.0,0.0,0.0,0.0,0.0,20.23,58.08807958080181,4.144726366744759
"butanediamide, n,n,n',n'-tetramethyl-",CN(C)C(=O)CCC(=O)N(C)C,0.5035,G1,-0.0569999999999999,46.62200000000003,2.0,0.0,4.0,3.0,0.0,0.0,0.0,0.0,40.620000000000005,73.13655736910007,3.6934830872423
"propanoic acid, 3,3'-diselenobis-",OC(=O)CC[Se][Se]CCC(O)=O,-2.2681,G1,0.0958,45.627600000000015,2.0,2.0,6.0,7.0,0.0,0.0,0.0,0.0,74.6,81.58894957173035,3.0073056362946597
"2,5-piperazinedione, 1,4-bis(hydroxymethyl)-",OCN1CC(=O)N(CO)CC1=O,-0.4168,G1,-2.443199999999999,37.5976,4.0,2.0,6.0,2.0,0.0,1.0,1.0,1.0,81.08000000000001,68.98930949116965,2.614523544218947
"barbituric acid, 5-ipr",CC(C)C1C(=O)NC(=O)NC1=O,-1.4556,G1,-0.3754000000000001,40.0094,3.0,2.0,5.0,1.0,0.0,1.0,1.0,1.0,75.27000000000001,69.50736322802734,2.8067012713056982
"phosphonic acid, 4-morpholinyl-, diphenyl ester",O=[P](Oc1ccccc1)(Oc2ccccc2)N3CCOCC3,-2.1425,G1,3.5847000000000024,84.13850000000005,4.0,0.0,6.0,5.0,2.0,1.0,1.0,3.0,48.0,129.5620537804481,1.8517098369978215
n-methyl-n-nitrosoacetamide,CN(N=O)C(C)=O,-0.7684,G1,0.1460999999999999,24.23899999999999,3.0,0.0,4.0,1.0,0.0,0.0,0.0,0.0,49.74,41.05535903133535,3.551713608029699
endrin aldehyde,ClC1(Cl)C2(Cl)C3C(CC4C3C1(Cl)C5(Cl)C4C25Cl)C=O,-7.2006,G1,3.8087000000000018,76.90400000000002,1.0,0.0,7.0,1.0,0.0,5.0,5.0,5.0,17.07,139.70557797987988,1.8886276629404244
sulfur dioxide,O=[S]=O,0.2235,G1,-0.6701999999999999,8.9198,2.0,0.0,3.0,0.0,0.0,0.0,0.0,0.0,34.14,21.0636205712925,3.2659863237109046
"benzenamine, n-ethyl-2,4,6-trinitro-",CCNc1c(cc(cc1[N+]([O-])=O)[N+]([O-])=O)[N+]([O-])=O,-3.4085,G1,1.843,60.5689,7.0,1.0,10.0,5.0,1.0,0.0,0.0,1.0,141.45000000000002,99.6700766993976,3.590909965755676
"4-benzothiazolol, 2-amino-",Nc1sc2cccc(O)c2n1,-1.9196,G1,1.5841,45.69720000000002,4.0,2.0,4.0,0.0,2.0,0.0,0.0,2.0,59.14,67.1072033517989,2.900358307908823
"3-furancarboxylic acid, tetrahydro-3-methyl-2-ox",CC1(CCOC1=O)C(O)=O,0.8412,G1,0.0241999999999999,31.318799999999985,3.0,1.0,4.0,1.0,0.0,1.0,1.0,1.0,63.6,57.78895362807378,2.855823064649332
"1,2-anthracenedicarboxylic acid, 9,10-dihydro-9,",OC(=O)c1ccc2C(=O)c3ccccc3C(=O)c2c1C(O)=O,-2.8141,G1,1.8584,73.66760000000002,4.0,2.0,6.0,2.0,2.0,0.0,1.0,3.0,108.74,123.17699053418532,2.406944428876235
"cytidine, 2',3'-dideoxy-",NC1=NC(=O)N(C=C1)[C@H]2CC[C@@H](CO)O2,-0.4416,G1,-0.5046000000000008,53.13920000000002,6.0,2.0,6.0,2.0,1.0,1.0,1.0,2.0,90.37,86.3087417651985,2.2042997522549417