Name,SMILES,Solubility,Group,MolLogP,MolMR,NumHAcceptors,NumHDonors,NumHeteroatoms,NumRotatableBonds,NumAromaticRings,NumSaturatedRings,NumAliphaticRings,RingCount,TPSA,LabuteASA,BalabanJ
pyridine-4-carboxylic acid,OC(=O)c1ccncc1,-1.3759670992,G1,0.7797999999999999,31.196299999999997,2.0,1.0,3.0,1.0,1.0,0.0,0.0,1.0,50.19,51.971749067079855,2.981454614041131
"1,4-dithiane-2,5-diol",OC1CSC(O)CS1,-1.4690382322,G1,0.1031999999999999,36.92960000000001,4.0,2.0,4.0,0.0,0.0,1.0,1.0,1.0,40.46,56.662933772612654,2.1923771580194718
6-chlorohexan-2-one,CC(=O)CCCCCl,-1.4155738757,G1,1.9845,35.251999999999995,1.0,0.0,2.0,4.0,0.0,0.0,0.0,0.0,17.07,55.02874992673803,2.822354554248032
"4-(3-methyl-5-oxo-4,5-dihydro-1H-pyrazol-1-yl)benzenesulfonic acid",CC1=NN(C(=O)C1)c2ccc(cc2)[S](O)(=O)=O,-1.6926402974,G1,1.0459,61.46860000000002,4.0,1.0,7.0,2.0,1.0,0.0,1.0,2.0,87.03999999999999,98.30079070993702,2.3388863280072325
toluenesulphonamide,Cc1ccccc1[S](N)(=O)=O,-1.5259868531,G3,0.6424200000000001,42.55220000000001,2.0,1.0,4.0,1.0,1.0,0.0,0.0,1.0,60.16,65.89701182332136,3.3721948109608206
1-(6-methyl-2-oxohexahydropyrimidin-4-yl)urea,CC1CC(NC(N)=O)NC(=O)N1,-1.5314234319,G1,-0.9277999999999988,42.2535,2.0,4.0,6.0,1.0,0.0,1.0,1.0,1.0,96.25,69.87065189420773,2.4382761528053187
"2-methylbenzene-1,4-diamine; sulfuric acid",Cc1cc(N)ccc1N.O[S](O)(=O)=O,-1.641347932,G1,0.5066200000000003,54.1812,4.0,4.0,7.0,0.0,1.0,0.0,0.0,1.0,126.64,82.11383141974288,2.917777714029632e-07
3-(trifluoromethyl)aniline,Nc1cccc(c1)C(F)(F)F,-1.5081956214,G5,2.2876000000000003,35.856400000000015,1.0,1.0,4.0,0.0,1.0,0.0,0.0,1.0,26.02,61.63284213968499,3.059901692217984
"4,4'-methylenebis(cyclohexylamine)",NC1CCC(CC1)CC2CCC(N)CC2,-1.6240034803,G5,2.4115,64.48380000000004,2.0,2.0,2.0,2.0,0.0,2.0,2.0,2.0,52.04,93.78667548755584,1.681234854638506
"N-(2,5-dimethoxyphenyl)acetamide",COc1ccc(OC)c(NC(C)=O)c1,-1.5915498548,G1,1.6622,53.84970000000003,3.0,1.0,4.0,3.0,1.0,0.0,0.0,1.0,47.56,82.82964631974899,3.013413545094133
potassium 4-(propan-2-yl)benzene-1-sulfonate,[K+].CC(C)c1ccc(cc1)[S]([O-])(=O)=O,0.3208872115,G1,-1.281899999999999,48.49420000000003,3.0,0.0,5.0,2.0,1.0,0.0,0.0,1.0,57.2,127.07743016809,1.6899995216001402e-06
ammonium carbamate,[NH4+].O.NC([O-])=O,0.7115939977,G1,-2.1601000000000004,19.182,2.0,2.0,5.0,0.0,0.0,0.0,0.0,0.0,134.15,34.65140136944304,-4.4999999250000016e-08
sodium 4-(propan-2-yl)benzene-1-sulfonate,[Na+].CC(C)c1ccc(cc1)[S]([O-])(=O)=O,0.3460227367,G1,-1.281899999999999,48.49420000000003,3.0,0.0,5.0,2.0,1.0,0.0,0.0,1.0,57.2,106.56826509543934,1.6899995216001402e-06
trimethyl-3-[(1-oxo-10-undecenyl)amino]propylammonium methyl sulphate,CO[S]([O-])(=O)=O.C[N+](C)(C)CCCNC(=O)CCCCCCCCC=C,0.0940632128999999,G1,2.5987,104.36530000000008,5.0,1.0,8.0,14.0,0.0,0.0,0.0,0.0,95.53,159.8918696499729,0.0
"disodium bicyclo[3.3.1]tetraboroxane-3,7-bis(olate)",O.O.O.O.O.O.O.O.O.O.[Na+].[Na+].[O-]B(OB=O)OB([O-])OB=O,-0.8846418846999999,G1,-18.583000000000013,63.78200000000007,7.0,0.0,23.0,6.0,0.0,0.0,0.0,0.0,422.9500000000001,175.19205472556806,-7.575757387310611e-09
2-aminopyridin-3-ol,Nc1ncccc1O,-0.3461061519,G1,0.3694,30.3142,3.0,2.0,3.0,0.0,1.0,0.0,0.0,1.0,59.14,46.7851755496522,3.134861511345448
1-ethenylazepan-2-one,C=CN1CCCCCC1=O,-0.4507860761,G1,1.5325,40.37800000000001,1.0,0.0,2.0,1.0,0.0,1.0,1.0,1.0,20.31,61.51976741313946,2.5093871295823527
3-methyl-4-oxobut-2-en-1-yl acetate,CC(=O)OC\C=C(/C)C=O,-0.4607939818,G1,0.6947000000000001,36.454,3.0,0.0,3.0,3.0,0.0,0.0,0.0,0.0,43.370000000000005,59.67589011161935,3.5235688343516944
boric acid,OB(O)O,-0.0992552152,G5,-2.0518,12.4104,3.0,3.0,4.0,0.0,0.0,0.0,0.0,0.0,60.69,23.684517280895907,2.3237900077244498
calcium hydrogen borate,[Ca++].[Ca++].[Ca++].[O-]B([O-])[O-].[O-]B([O-])[O-],-0.6843417048,G5,-9.038,28.77,6.0,0.0,11.0,0.0,0.0,0.0,0.0,0.0,138.36,154.34786078756062,-1.7142857044897958e-08
hexapotassium dihydrogen borate hydrogen borate borate,[K].OB(O)O,-0.3120594734,G5,-2.4326,18.1644,3.0,3.0,5.0,0.0,0.0,0.0,0.0,0.0,60.69,72.60708197625848,0.0
"2,2-bis(hydroxymethyl)butanoic acid",CCC(CO)(CO)C(O)=O,0.5168038544,G1,-0.5480000000000003,34.53139999999999,3.0,3.0,4.0,4.0,0.0,0.0,0.0,0.0,77.75999999999999,59.10818495644438,4.305619426082996
lead(2+) ion dinitrate,[Pb++].[O-][N+]([O-])=O.[O-][N+]([O-])=O,0.1665354510999999,G1,-0.8590000000000002,26.476800000000004,6.0,0.0,9.0,0.0,0.0,0.0,0.0,0.0,132.4,68.46518758887134,-7.199999951999999e-08
trisodium 2-({2-[bis(carboxylatomethyl)amino]ethyl}(2-hydroxyethyl)amino)acetate,[Na+].[Na+].[Na+].OCCN(CCN(CC([O-])=O)CC([O-])=O)CC([O-])=O,0.1444215392,G3,-15.155599999999998,54.98680000000003,9.0,1.0,12.0,11.0,0.0,0.0,0.0,0.0,147.1,194.44509757485696,-5.399998610750369e-07
zinc bis(2-hydroxypropanoate),[Zn++].CC(O)C([O-])=O.CC(O)C([O-])=O,-0.7035054304999999,G3,-3.7682999999999978,33.375599999999984,6.0,2.0,7.0,2.0,0.0,0.0,0.0,0.0,120.72,87.95310000477826,-1.4285714124489798e-07
3-methylbutanoic acid,CC(C)CC(O)=O,-0.3279248515,G3,1.1171,27.090799999999987,1.0,1.0,2.0,2.0,0.0,0.0,0.0,0.0,37.3,43.15477533765576,3.126006652390634
"trilithium 2-hydroxypropane-1,2,3-tricarboxylate tetrahydrate",[Li+].[Li+].[Li+].O.O.O.O.OC(CC([O-])=O)(CC([O-])=O)C([O-])=O,0.2218764714,G1,-17.539400000000008,43.66000000000002,7.0,1.0,14.0,5.0,0.0,0.0,0.0,0.0,266.62,149.04117320018275,-3.4285712703061296e-08
(2S)-3-methyl-2-[pentanoyl-[[4-[2-(2H-tetrazol-5-yl)phenyl]phenyl]methyl]amino]butanoic acid,CCCCC(=O)N(Cc1ccc(cc1)c2ccccc2c3n[nH]nn3)[C@@H](C(C)C)C(O)=O,-2.7359260939,G1,4.161700000000002,121.38650000000008,5.0,2.0,8.0,10.0,3.0,0.0,0.0,3.0,112.07000000000002,187.21053148154263,1.8705600872018624
2-[(2-hydroxyethyl)(phenyl)amino]ethan-1-ol,OCCN(CCO)c1ccccc1,-0.5833809314,G5,0.4775999999999998,52.82660000000004,3.0,2.0,3.0,5.0,1.0,0.0,0.0,1.0,43.7,78.23947275167879,2.6389166230335177
ethyl methyl carbonate,CCOC(=O)OC,-0.3444506814,G1,0.7893000000000001,24.030999999999988,3.0,0.0,3.0,1.0,0.0,0.0,0.0,0.0,35.53,42.222689930076896,3.002590528674132
magnesium(2+) ion dichloride,[Mg++].[Cl-].[Cl-],0.6922078268999999,G1,-6.3728,5.754,0.0,0.0,3.0,0.0,0.0,0.0,0.0,0.0,0.0,47.94456007309881,-0.0
"hexane-1,6-diamine; hexanedioic acid",NCCCCCCN.OC(=O)CCCCC(O)=O,0.2513647845,G1,1.1801999999999997,70.31640000000003,4.0,4.0,6.0,10.0,0.0,0.0,0.0,0.0,126.64,108.35073853822648,0.0
vanadium oxide sulphate,[O-][S]([O-])(=O)=O.O=[V++],0.4571186188,G1,-1.4592999999999996,11.1611,5.0,0.0,7.0,0.0,0.0,0.0,0.0,0.0,97.32999999999998,49.5062133689381,0.0
lithium(1+) ion perchlorate,[Li+].O.O.O.[O-][Cl](=O)(=O)=O,0.4612188619,G1,-10.226099999999995,10.841399999999998,4.0,0.0,9.0,0.0,0.0,0.0,0.0,0.0,186.74,64.75172800036515,-1.3333333150000002e-08
potassium nonafluorobutane-1-sulfonate,[K+].[O-][S](=O)(=O)C(F)(F)C(F)(F)C(F)(F)C(F)(F)F,-0.8645162178,G5,-1.0387,30.593200000000007,3.0,0.0,14.0,3.0,0.0,0.0,0.0,0.0,57.2,135.87509670275867,0.0
"2-[(E)-2-{4-[ethyl(2-hydroxyethyl)amino]phenyl}diazen-1-yl]-6-methoxy-3-methyl-1,3-benzothiazol-3-ium chloride",[Cl-].CCN(CCO)c1ccc(cc1)N=Nc2sc3cc(OC)ccc3[n+]2C,-0.9467714818,G1,0.9724000000000008,105.14380000000006,6.0,1.0,8.0,7.0,3.0,0.0,0.0,3.0,61.3,168.69728103057395,2.6133303967589968e-06
"2-[(E)-2-{4-[ethyl(2-hydroxyethyl)amino]phenyl}diazen-1-yl]-6-methoxy-3-methyl-1,3-benzothiazol-3-ium methyl sulfate",CCN(CCO)c1ccc(cc1)N=Nc2sc3cc(OC)ccc3[n+]2C.CO[S]([O-])(=O)=O,-1.0208150872,G1,3.0614000000000017,121.85000000000004,10.0,1.0,12.0,8.0,3.0,0.0,0.0,3.0,127.73,190.86614616155595,5.344870832939098e-07
butyl 2-hydroxyacetate,CCCCOC(=O)CO,-0.4583389122,G1,0.322,32.95279999999998,3.0,1.0,3.0,4.0,0.0,0.0,0.0,0.0,46.53,54.63326268155924,2.9730624080867365
methyl 2-chloroacetate,COC(=O)CCl,-0.372767961,G1,0.3981999999999999,22.735999999999997,2.0,0.0,3.0,1.0,0.0,0.0,0.0,0.0,26.3,41.04746881305508,2.9881608821342693
cadmium dichloride,[Cl-].[Cl-].[Cd++],0.3967110896,G1,-5.9945,0.0,0.0,0.0,3.0,0.0,0.0,0.0,0.0,0.0,0.0,51.95721583856415,-0.0
sodium 2-bromoethane-1-sulfonate,[Na+].[O-][S](=O)(=O)CCBr,0.332748699,G1,-3.069499999999999,28.3582,3.0,0.0,6.0,2.0,0.0,0.0,0.0,0.0,57.2,79.01377638062009,0.0
"benzene-1,2-diol",Oc1ccccc1O,0.6123418909,G3,1.0978,29.771599999999992,2.0,2.0,2.0,0.0,1.0,0.0,0.0,1.0,40.46,47.01987062388899,3.134861511345448
"N,N-diethylhydroxylamine",CCN(O)CC,0.7036319098,G3,0.7174,24.707499999999992,2.0,1.0,2.0,2.0,0.0,0.0,0.0,0.0,23.47,38.34218329289674,2.7541847860376616
bis(amino(imino)methanaminium) carbonate,NC(N)=N.NC(N)=N.OC(O)=O,0.3975348561999999,G1,-2.10046,42.85659999999999,3.0,8.0,9.0,0.0,0.0,0.0,0.0,0.0,209.31,67.96105195469745,-1.0124999957812501e-07
lithium(1+) ion acetate,[Li+].CC([O-])=O,0.8337672926999999,G5,-4.2398,10.681,2.0,0.0,3.0,0.0,0.0,0.0,0.0,0.0,40.13,42.357514520398354,0.0
4-{2-[(2-methylprop-2-enoyl)oxy]ethoxy}-4-oxobutanoic acid,CC(=C)C(=O)OCCOC(=O)CCC(O)=O,-0.706708916,G1,0.5136999999999998,53.601800000000026,5.0,1.0,6.0,7.0,0.0,0.0,0.0,0.0,89.9,92.84001753655583,3.515905964077008
"(4S,4aS,5aS,6S,12aR)-7-chloro-4-(dimethylamino)-1,6,10,11,12a-pentahydroxy-3,12-dioxo-3,4,4a,5,5a,6,12,12a-octahydrotetracene-2-carboxamide hydrochloride",[Cl-].CN(C)[C@H]1[C@@H]2C[C@@H]3[C@H](O)c4c(Cl)ccc(O)c4C(=C3C(=O)[C@]2(O)C(=O)\C(=C(N)/O)C1=O)O.[H+],-1.0469016509,G1,-2.7751999999999963,111.62240000000006,10.0,6.0,12.0,1.0,1.0,2.0,3.0,4.0,181.62,200.00545258774392,2.0416653908931783e-06
2-methylbutanoic acid,CCC(C)C(O)=O,-0.3559535751,G1,1.1171,27.090799999999987,1.0,1.0,2.0,2.0,0.0,0.0,0.0,0.0,37.3,43.15477533765576,3.34341705895396
diiron(3+) ion trisulfate,[Fe+3].[Fe+3].[O-][S]([O-])(=O)=O.[O-][S]([O-])(=O)=O.[O-][S]([O-])(=O)=O,1.0415240791,G1,-4.018999999999999,31.4238,12.0,0.0,17.0,0.0,0.0,0.0,0.0,0.0,240.78,117.47283267981686,-3.99999998625e-08
zinc dibromide,[Zn++].[Br-].[Br-],1.2977429939,G1,-5.9945,0.0,0.0,0.0,3.0,0.0,0.0,0.0,0.0,0.0,0.0,53.27721002736354,-0.0
sodium 3-(4-methyl-2-nitrophenoxy)propanesulphonate,[Na+].Cc1ccc(OCCC[S]([O-])(=O)=O)c(c1)[N+]([O-])=O,0.1703103591,G1,-1.7786799999999974,62.50960000000002,6.0,0.0,9.0,6.0,1.0,0.0,0.0,1.0,109.57000000000002,132.69972816184264,3.23999795160134e-06
"2-butyl-1,3-diazaspiro[4.4]non-1-en-4-one 2-butyl-1,3-diazaspiro[4.4]non-2-en-4-one dihydrochloride",Cl.Cl.CCCCC1=NC2(CCCC2)C(=O)N1.CCCCC3=NC(=O)C4(CCCC4)N3,-1.019613944,G1,4.879000000000002,127.09940000000006,4.0,2.0,8.0,6.0,0.0,2.0,4.0,4.0,82.92,192.90514201369336,2.812499931708986e-07
zinc(2+) ion dichloride,[Cl-].[Cl-].[Zn++],0.5010006364,G3,-5.9945,0.0,0.0,0.0,3.0,0.0,0.0,0.0,0.0,0.0,0.0,44.5579923075674,-0.0
thymidine,CC1=CN(C2CC(O)C(CO)O2)C(=O)NC1=O,-0.7420620876999999,G1,-1.5142799999999992,57.67930000000002,6.0,3.0,7.0,2.0,1.0,1.0,1.0,2.0,104.54999999999998,96.28954903482216,2.335396041923274
"2-[(E)-2-[4-(diethylamino)phenyl]ethenyl]-1,3,3-trimethyl-3H-indol-1-ium acetate",CCN(CC)c1ccc(cc1)C=CC2=[N+](C)c3ccccc3C2(C)C.CC([O-])=O,-0.9604187817,G1,4.008400000000003,120.03740000000006,3.0,0.0,4.0,5.0,2.0,0.0,1.0,3.0,46.38,174.36402527543126,6.86999829551753e-07
"2-[2-[4-(diethylamino)phenyl]vinyl]-1,3,3-trimethyl-3H-indolium dihydrogen phosphate",CCN(CC)c1ccc(cc1)C=CC2=[N+](C)c3ccccc3C2(C)C.O[P](O)([O-])=O,-1.0004895677,G1,3.691600000000003,121.40050000000004,3.0,2.0,7.0,5.0,2.0,0.0,1.0,3.0,86.84,178.6106971254614,5.745332205889748e-07
disodium 4-[(3-carboxylato-2-hydroxynaphthalen-1-yl)methyl]-3-hydroxynaphthalene-2-carboxylate,[Na].OC(=O)c1cc2ccccc2c(Cc3c(O)c(cc4ccccc34)C(O)=O)c1O,-0.9807588825,G1,4.010600000000002,113.70420000000004,4.0,4.0,7.0,4.0,4.0,0.0,0.0,4.0,115.06000000000002,192.8600315638047,2.5599973700027724e-06
"diammonium 2,3-dihydroxybutanedioate",N.N.O[C@H]([C@@H](O)C(O)=O)C(O)=O,0.3662767625999999,G1,-1.7986,37.32940000000001,6.0,6.0,8.0,3.0,0.0,0.0,0.0,0.0,185.06,67.60555730778417,-4.049999586000043e-07
5-(aminomethyl)-2-methylpyrimidin-4-amine,Cc1ncc(CN)c(N)n1,0.4903065627,G1,-0.1740800000000001,39.0728,4.0,2.0,4.0,1.0,1.0,0.0,0.0,1.0,77.82,59.28036470420864,3.06998271499884
manganese(2+) dinitrate,[Mn++].[O-][N+]([O-])=O.[O-][N+]([O-])=O,1.377095201,G1,-0.4807000000000001,20.722800000000003,6.0,0.0,9.0,0.0,0.0,0.0,0.0,0.0,132.4,58.77825628753051,-7.199999951999999e-08
(3-{[3-(dimethylamino)propyl]amino}propyl)dimethylamine,CN(C)CCCNCCCN(C)C,0.3558508036,G3,0.4794000000000011,59.21170000000005,3.0,1.0,3.0,8.0,0.0,0.0,0.0,0.0,18.51,83.09325958141379,2.91636218704284
"2-(2,4-diaminophenoxy)ethan-1-ol dihydrochloride",[H+].[H+].[Cl-].[Cl-].Nc1ccc(OCCO)c(N)c1,0.2461592973999999,G1,-5.5448999999999975,50.07160000000001,4.0,3.0,6.0,3.0,1.0,0.0,0.0,1.0,81.5,98.0246309681084,-1.7999998755000094e-07
"trisodium 2-hydroxypropane-1,2,3-tricarboxylate",[Na+].[Na+].[Na+].OC(CC([O-])=O)(CC([O-])=O)C([O-])=O,0.2166530911,G3,-14.240600000000002,29.204799999999995,7.0,1.0,10.0,5.0,0.0,0.0,0.0,0.0,140.62,157.46566177686378,-2.399999741500029e-07
aluminium(3+) ion trinitrate,O.O.O.O.O.O.O.O.O.[Al+3].[O-][N+]([O-])=O.[O-][N+]([O-])=O.[O-][N](=O)=O,-0.9408131942,G1,-8.520399999999993,69.36240000000002,9.0,0.0,22.0,0.0,0.0,0.0,0.0,0.0,482.1,128.79000899072884,-4.090909083333333e-09
sodium fluoride,[F-].[Na+],-0.0021872624,G1,-5.992,0.0,0.0,0.0,2.0,0.0,0.0,0.0,0.0,0.0,0.0,34.5105403470167,0.0
1-phenylethanamine,C[C@H](N)c1ccccc1,-0.4601924093,G1,1.7063,39.04440000000001,1.0,1.0,1.0,1.0,1.0,0.0,0.0,1.0,26.02,55.50117804530289,2.848234050597751
sodium 4-(methoxycarbonyl)phenolate,[Na+].COC(=O)c1ccc([O-])cc1,0.3803001877,G1,-2.4491999999999985,37.22750000000001,3.0,0.0,4.0,1.0,1.0,0.0,0.0,1.0,49.36,92.6439880527488,1.2099997384750588e-06
sodium hydrogen 2-aminopentanedioate,[Na+].NC(CCC(O)=O)C([O-])=O,0.3919616292,G5,-5.067599999999998,29.8522,4.0,2.0,6.0,4.0,0.0,0.0,0.0,0.0,103.45,85.86382150962022,0.0
sodium azide,[Na+].[N-]=[N+]=[N-],0.8040134946999999,G1,-2.1299,10.077,0.0,0.0,4.0,0.0,0.0,0.0,0.0,0.0,58.7,45.71145906832435,0.0
manganese(2+) ion disodium 2-({2-[bis(carboxylatomethyl)amino]ethyl}(carboxylatomethyl)amino)acetate,[Na+].[Na+].[Mn++].[O-]C(=O)CN(CCN(CC([O-])=O)CC([O-])=O)CC([O-])=O,0.024802502,G1,-13.404500000000008,52.90800000000002,10.0,0.0,13.0,11.0,0.0,0.0,0.0,0.0,167.0,186.78884032440956,-6.016665005222694e-07
diammonium oxalate,[NH4+].[NH4+].[O-]C(=O)C([O-])=O,-0.4725815013,G5,-2.7614,21.98360000000001,4.0,2.0,6.0,0.0,0.0,0.0,0.0,0.0,153.26,45.287205574598936,-1.249999955000002e-07
(2S)-2-amino-4-carbamoylbutanoic acid,N[C@@H](CCC(N)=O)C(O)=O,-0.5483114193999999,G3,-1.3361999999999998,34.03959999999999,3.0,3.0,5.0,4.0,0.0,0.0,0.0,0.0,106.41,57.996078831724944,3.4907296603908136
(2S)-2-amino-3-methylpentanoic acid,CC[C@H](C)[C@H](N)C(O)=O,-0.5029538568,G3,0.4443999999999999,35.06619999999998,2.0,2.0,3.0,3.0,0.0,0.0,0.0,0.0,63.32,54.85960814906508,3.716136771182721
"2-[(2H-1,3-benzodioxol-5-yl)amino]ethan-1-ol hydrochloride",[H+].[Cl-].OCCNc1ccc2OCOc2c1,0.2728975009,G1,-2.0639999999999983,49.252500000000026,4.0,2.0,5.0,3.0,1.0,0.0,1.0,2.0,50.72,89.72947632602033,9.799998415666933e-07
"2,5-dihydrofuran-2,5-dione",O=C1OC(=O)C=C1,0.6181158071,G3,-0.3740000000000001,20.239,3.0,0.0,3.0,0.0,0.0,0.0,1.0,1.0,43.370000000000005,39.5752326149003,2.759543614305127
disodium carbonate,[Na+].[Na+].[O-]C([O-])=O,0.581124668,G3,-8.439,5.396,3.0,0.0,5.0,0.0,0.0,0.0,0.0,0.0,63.19,79.31603987768926,-4.4999999250000016e-08
2-methyloxirane,C[C@H]1CO1,0.8380333836,G1,0.4051,15.414,1.0,0.0,1.0,0.0,0.0,1.0,1.0,1.0,12.53,25.57684933260041,2.171098317873574
1-[2-(2-butoxy-1-methylethoxy)-1-methylethoxy]propan-1-ol,CCOCCCC(C)OCCOCC(C)CO,-0.790860844,G1,1.8532,68.20980000000006,4.0,1.0,4.0,12.0,0.0,0.0,0.0,0.0,47.92,105.2534258413055,3.18373698989551
(1R)-1-phenylethan-1-amine,CC(N)c1ccccc1,-0.4813817083,G3,1.7063,39.04440000000001,1.0,1.0,1.0,1.0,1.0,0.0,0.0,1.0,26.02,55.50117804530289,2.848234050597751
dipotassium zinc 2-[2-[bis(2-oxido-2-oxoethyl)amino]ethyl-(2-oxido-2-oxoethyl)amino]acetate,[K+].[K+].[Zn++].[O-]C(=O)CN(CCN(CC([O-])=O)CC([O-])=O)CC([O-])=O,0.237458201,G1,-13.404500000000008,52.90800000000002,10.0,0.0,13.0,11.0,0.0,0.0,0.0,0.0,167.0,230.09487824005487,-6.016665005222694e-07
2-[(butylcarbamoyl)oxy]ethyl prop-2-enoate,CCCCNC(=O)OCCOC(=O)C=C,-1.6348405969,G1,1.2418999999999998,55.41470000000003,4.0,1.0,5.0,7.0,0.0,0.0,0.0,0.0,64.63,89.43412386792411,3.3069437701948834
(4-chlorophenyl)hydrazine,[H+].[Cl-].NNc1ccc(Cl)cc1,-1.5636654662,G1,-1.2578999999999994,40.374100000000006,2.0,2.0,4.0,1.0,1.0,0.0,0.0,1.0,38.05,72.23244986927932,0.0
"3,5-dimethylaniline",Cc1cc(C)cc(N)c1,-1.4022004623,G1,1.88564,40.32840000000001,1.0,1.0,1.0,0.0,1.0,0.0,0.0,1.0,26.02,55.50117804530289,3.165670309917317
"1,3,3-trimethyl-5-oxocyclohexane-1-carbonitrile",CC1(C)CC(=O)CC(C)(C1)C#N,-1.5404977204,G3,2.2954800000000004,46.35900000000002,2.0,0.0,2.0,0.0,0.0,1.0,1.0,1.0,40.86,73.57200068538228,2.8553613866654706
4-(4-chlorophenyl)piperidin-4-ol,[H+].[Cl-].OC1(CCNCC1)c2ccc(Cl)cc2,-1.7207775313,G1,-0.9724999999999993,58.56450000000004,2.0,2.0,4.0,1.0,1.0,1.0,1.0,2.0,32.26,102.53553632268148,1.1249998042500352e-06
amino(phenyl)acetic acid,[NH3+][C@@H](C([O-])=O)c1ccccc1,-1.5082784056999998,G1,-1.2804999999999995,37.07810000000001,2.0,1.0,3.0,2.0,1.0,0.0,0.0,1.0,67.77000000000001,64.45693389754267,2.851177890164404
octan-1-amine dibutyl sulfanylphosphonate,CCCCCCCCN.CCCCO[P](S)(=O)OCCCC,-1.8796973024,G3,5.963300000000007,100.74290000000008,4.0,2.0,6.0,14.0,0.0,0.0,0.0,0.0,61.55,143.1527867562025,0.0
"4-amino-N-tert-butyl-5-oxo-3-(propan-2-yl)-4,5-dihydro-1H-1,2,4-triazole-1-carboxamide",CC(C)C1=NN(C(=O)NC(C)(C)C)C(=O)N1N,-1.7188473974,G5,0.2382000000000007,64.40910000000002,6.0,2.0,7.0,1.0,1.0,0.0,0.0,1.0,94.94,99.5707260601158,3.1237094952308486
4-(4-hydroxyphenyl)butan-2-one,CC(=O)CCc1ccc(O)cc1,-1.5520409413,G1,1.9138,47.10880000000003,2.0,1.0,2.0,3.0,1.0,0.0,0.0,1.0,37.3,71.84692742932317,2.529889074289453
(2H)chloroform,ClC(Cl)(Cl)[2H],-1.417811305,G1,1.9864,21.347,0.0,0.0,3.0,0.0,0.0,0.0,0.0,0.0,0.0,41.05402020864239,3.0237157840738176
"4-amino-3,6-dichloropyridine-2-carboxylic acid",Nc1cc(Cl)nc(C(O)=O)c1Cl,-0.0042500518,G3,1.6688,45.6287,3.0,2.0,6.0,1.0,1.0,0.0,0.0,1.0,76.21000000000001,77.91817221785593,3.3738590108748694
"2,2'-({4-[(2-hydroxyethyl)amino]-3-nitrophenyl}imino)diethanol",OCCNc1ccc(cc1[N+]([O-])=O)N(CCO)CCO,-1.7953855716,G1,-0.21,75.05650000000003,7.0,4.0,8.0,9.0,1.0,0.0,0.0,1.0,119.1,115.9664286387759,3.034674229369528
aluminium(3+) ion potassium tetrafluoride,[F-].[Al+3].[K+],-1.269901072,G1,-6.3728,5.754,0.0,0.0,3.0,0.0,0.0,0.0,0.0,0.0,0.0,71.89321841165402,-0.0
tributoxyalumane,[Al+3].CCCC[O-].CCCC[O-].CCCC[O-],-1.7373354758,G5,0.059600000000002,65.07900000000005,3.0,0.0,4.0,6.0,0.0,0.0,0.0,0.0,69.17999999999999,112.02149084182544,-6.545454500826446e-08
"2,4-dichlorophenol",Oc1ccc(Cl)cc1Cl,-1.5589830837,G3,2.699,38.12680000000001,1.0,1.0,3.0,0.0,1.0,0.0,0.0,1.0,20.23,62.83216932545633,3.171678030440915
methyl 3-methylbut-2-enoate,COC(=O)C=C(C)C,-1.4140004112,G1,1.1256,31.446999999999985,2.0,0.0,2.0,1.0,0.0,0.0,0.0,0.0,26.3,49.14942589717898,3.7016454312284
"3-(3-methyl-5-oxo-4,5-dihydro-1H-pyrazol-1-yl)benzene-1-sulfonic acid",CC1=NN(C(=O)C1)c2cccc(c2)[S](O)(=O)=O,-1.7718215434,G1,1.0459,61.46860000000002,4.0,1.0,7.0,2.0,1.0,0.0,1.0,2.0,87.03999999999999,98.300790709937,2.446226843006028
3-methylbut-2-en-1-yl acetate,CC(=O)OCC=C(C)C,-1.4743213171,G1,1.5157,36.06399999999999,2.0,0.0,2.0,2.0,0.0,0.0,0.0,0.0,26.3,55.51436801157559,3.3050429936972368
"N,N-dimethyloctanamide",CCCCCCCC(=O)N(C)C,-1.6002483409,G1,2.4351000000000003,52.07000000000004,1.0,0.0,2.0,6.0,0.0,0.0,0.0,0.0,20.31,75.94508582764615,3.143237500372718
heptan-2-one,CCCCCC(C)=O,-1.4333383705,G5,2.1557000000000004,34.822999999999986,1.0,0.0,1.0,4.0,0.0,0.0,0.0,0.0,17.07,51.09042581425296,2.822354554248032
2-methylpentanal,CCCC(C)C=O,-1.3774493615,G3,1.6215,30.13599999999998,1.0,0.0,1.0,3.0,0.0,0.0,0.0,0.0,17.07,44.72548369985635,2.9843602328703267
"hexahydro-2-benzofuran-1,3-dione",O=C1OC(=O)C2CCCCC12,-1.5647364969,G1,0.8761999999999999,36.547,3.0,0.0,3.0,0.0,0.0,2.0,2.0,2.0,43.370000000000005,64.71877295114176,2.194698933936096