Name,SMILES,Solubility,Group,MolLogP,MolMR,NumHAcceptors,NumHDonors,NumHeteroatoms,NumRotatableBonds,NumAromaticRings,NumSaturatedRings,NumAliphaticRings,RingCount,TPSA,LabuteASA,BalabanJ
2-nitrophenol,Oc1ccccc1[N+]([O-])=O,-1.8029142358,G5,1.3004000000000002,34.7612,3.0,1.0,4.0,1.0,1.0,0.0,0.0,1.0,63.37,56.87861259419278,3.1529414466808685
"2,4,6-trimethylcyclohex-3-ene-1-carbaldehyde",CC1CC(=CC(C)C1C=O)C,-1.8440637235,G1,2.4237,46.25600000000003,1.0,0.0,1.0,1.0,0.0,0.0,1.0,1.0,17.07,68.4898179717293,2.7622572898218296
5-pentyloxolan-2-one,CCCCC[C@H]1CCC(=O)O1,-1.8552940397,G1,2.2723000000000004,43.256000000000014,2.0,0.0,2.0,4.0,0.0,1.0,1.0,1.0,26.3,67.92802411902383,2.0359306195731133
"1-(2,6-dimethylphenoxy)acetone",CC(=O)COc1c(C)cccc1C,-1.9185447839,G1,2.2712400000000006,52.09200000000003,2.0,0.0,2.0,3.0,1.0,0.0,0.0,1.0,26.3,78.53118102103065,2.8069205617428654
"2,5-dimethoxyaniline",COc1ccc(OC)c(N)c1,-1.8588690394,G1,1.286,43.95840000000002,3.0,1.0,3.0,2.0,1.0,0.0,0.0,1.0,44.48,65.72826850431666,2.992962951841593
"N-(2,4-dimethylphenyl)-3-oxobutanamide",CC(=O)CC(=O)Nc1ccc(C)cc1C,-1.9900786823,G1,2.2210400000000003,59.84370000000003,2.0,1.0,3.0,3.0,1.0,0.0,0.0,1.0,46.17,89.49396218957217,2.7237155741065955
N-(2-methoxy-5-methylphenyl)acetamide,COc1ccc(C)cc1NC(C)=O,-1.931164755,G1,1.96202,52.03470000000002,2.0,1.0,3.0,2.0,1.0,0.0,0.0,1.0,38.33,77.71610109024208,3.0053870485403893
"5-methyl-2-phenyl-2,3-dihydro-1H-pyrazol-3-one",CC1=NN(C(=O)C1)c2ccccc2,-1.9250852844,G3,1.7992,51.654000000000025,2.0,0.0,3.0,1.0,1.0,0.0,1.0,2.0,32.67,76.6721546998964,2.3262386182068613
heptanal,CCCCCCC=O,-1.7501244285,G5,2.1557000000000004,34.822999999999986,1.0,0.0,1.0,5.0,0.0,0.0,0.0,0.0,17.07,51.09042581425296,2.616293090417985
tert-butyl prop-2-enoate,CC(C)(C)OC(=O)C=C,-1.8045937153,G3,1.5141,36.042,2.0,0.0,2.0,1.0,0.0,0.0,0.0,0.0,26.3,55.514368011575584,3.736394291812786
"2-Hydroxy-N,N-dimethylpropanamide",CC(O)C(=O)N(C)C,1.6302351258,G1,-0.5446000000000002,30.374799999999983,2.0,1.0,3.0,1.0,0.0,0.0,0.0,0.0,40.54,48.91460900785912,3.65123357893369
azanium 2-hydroxyacetate,[NH4+].OCC([O-])=O,1.7009159091,G1,-1.8952,18.0776,3.0,2.0,4.0,1.0,0.0,0.0,0.0,0.0,96.86,34.98993311060856,0.0
"1,1'-binaphthalene-8,8'-dicarboxylic acid",OC(=O)c1cccc2cccc(c3cccc4cccc(C(O)=O)c34)c12,-2.2334403365,G1,5.056400000000003,100.80860000000006,2.0,2.0,4.0,3.0,4.0,0.0,0.0,4.0,74.6,148.49322232230418,2.186944659164913
2-methylpropyl prop-2-enoate,CC(C)COC(=O)C=C,-1.8067597771,G5,1.3716000000000002,35.99399999999999,2.0,0.0,2.0,3.0,0.0,0.0,0.0,0.0,26.3,55.514368011575584,3.27250147237882
3-phenylbutanal,CC(CC=O)c1ccccc1,-1.86983286,G1,2.3791,45.53800000000003,1.0,0.0,1.0,3.0,1.0,0.0,0.0,1.0,17.07,67.05269367712717,2.680097320748244
4-amino-3-methylphenol,Cc1cc(O)ccc1N,-1.7894220529,G3,1.2828199999999998,37.2562,2.0,2.0,2.0,0.0,1.0,0.0,0.0,1.0,46.25,53.930469683102295,3.171678030440916
methyl 2-oxo-2-phenylacetate,COC(=O)C(=O)c1ccccc1,-1.9142373478,G2,1.0423,42.78850000000002,3.0,0.0,3.0,2.0,1.0,0.0,0.0,1.0,43.370000000000005,69.96281889228119,2.861313088009411
4-(aminomethyl)-2-methoxyphenol hydrochloride,[Cl].COc1cc(CN)ccc1O,0.0188462521,G1,1.5489999999999997,48.40320000000002,3.0,2.0,4.0,2.0,1.0,0.0,0.0,1.0,55.48,77.56205027955521,1.209999748283388e-06
"tris(2-hydroxypropan-1-aminium) 2-hydroxypropane-1,2,3-tricarboxylate",CC(O)CN.OC(=O)CC(O)(CC(O)=O)C(O)=O,0.8629201268000001,G1,-1.9225999999999992,57.826400000000014,6.0,6.0,9.0,6.0,0.0,0.0,0.0,0.0,178.38,102.46024485465574,0.0
"2-methylbenzene-1,3-diol",Cc1c(O)cccc1O,0.1927727267,G3,1.4062199999999998,34.5086,2.0,2.0,2.0,0.0,1.0,0.0,0.0,1.0,40.46,53.3848127382856,3.2478347337367035
2-methylbut-3-en-2-ol,CC(C)(O)C=C,0.351057238,G3,0.9433,26.494799999999987,1.0,1.0,1.0,1.0,0.0,0.0,0.0,0.0,20.23,38.30365020542773,3.4459912135188397
dilithium adipate,[Li+].[Li+].[O-]C(=O)CCCCC([O-])=O,0.0846221527,G5,-7.945400000000004,28.48199999999999,4.0,0.0,6.0,5.0,0.0,0.0,0.0,0.0,80.25999999999999,95.070604356157,-4.049999451000077e-07
dilithium(1+) ion decanedioate,[Li+].[Li+].[O-]C(=O)CCCCCCCCC([O-])=O,-0.0473478928,G5,-6.384999999999998,46.95000000000002,4.0,0.0,6.0,9.0,0.0,0.0,0.0,0.0,80.25999999999999,120.53037281374344,-8.449997543000735e-07
dilithium(1+) ion nonanedioate,[Li+].[Li+].[O-]C(=O)CCCCCCCC([O-])=O,-0.017921985,G5,-6.7751,42.33300000000001,4.0,0.0,6.0,8.0,0.0,0.0,0.0,0.0,80.25999999999999,114.16543069934684,-7.199998222500451e-07
tin(4+) disulfate,[Sn++].[O-][S]([O-])(=O)=O,-0.0578238563,G1,-1.7188,16.2286,4.0,0.0,6.0,0.0,0.0,0.0,0.0,0.0,80.25999999999999,52.08466540399562,0.0
"4-[(2,4-dichloro-5-methoxyphenyl)amino]-6-methoxy-7-[3-(4-methylpiperazin-1-yl)propoxy]quinoline-3-carbonitrile",COc1cc(Nc2c(cnc3cc(OCCCN4CCN(C)CC4)c(OC)cc23)C#N)c(Cl)cc1Cl,-4.8795513261000005,G3,5.190380000000005,143.35569999999984,8.0,1.0,10.0,9.0,3.0,1.0,1.0,4.0,82.88,220.8076192908437,1.5708066366430866
acetaldehyde oxime,C/C=N/O,0.4958194622,G1,0.4663,15.9525,2.0,1.0,2.0,0.0,0.0,0.0,0.0,0.0,32.59,24.74778787976027,2.549193338482967
lithium(1+) ion bromide,[Li+].[Br-],1.3237062702,G1,-5.992,0.0,0.0,0.0,2.0,0.0,0.0,0.0,0.0,0.0,0.0,36.17874539828362,0.0
A mixture of RR and RS isomers of: (2-(2-methoxy-1-methyl)ethoxy)-1-methylethyl acetate; (2-(2-methoxy-2-methyl)ethoxy)-1-methylethyl acetate; (2-(2-methoxy-2-methyl)ethoxy)-2-methylethyl acetate; (2-(2-methoxy-1-methyl)ethoxy)-2-methylethyl acetate,CCC(OCCCOC)OC(C)=O,-0.0168484647,G3,1.3387,48.29000000000004,4.0,0.0,4.0,7.0,0.0,0.0,0.0,0.0,44.760000000000005,79.16094573156681,3.4182863869895925
sodium dithionite,[Na+].[Na+].[O-][S](=O)[S]([O-])=O,0.0182921287,G1,-7.332399999999999,17.8396,4.0,0.0,8.0,1.0,0.0,0.0,0.0,0.0,80.25999999999999,95.3560539088664,-1.249999955000002e-07
(2E)-but-2-enal,C\C=C/C=O,0.4120163187,G1,0.7614000000000001,20.877999999999997,1.0,0.0,1.0,1.0,0.0,0.0,0.0,0.0,17.07,31.30599643887888,2.9244181981729174
"2,3-dimethyloxirane",CC1OC1C,0.3972950779,G1,0.7936,20.009,1.0,0.0,1.0,0.0,0.0,1.0,1.0,1.0,12.53,31.941791446997023,2.203440344217372
sodium nonyl sulfate,[Na+].CCCCCCCCCO[S]([O-])(=O)=O,-0.1361989598,G1,-0.7821999999999991,53.642200000000045,4.0,0.0,6.0,9.0,0.0,0.0,0.0,0.0,66.43,115.0233726813199,0.0
Basic red 1:1,[Cl-].CCNc1cc2[o+]c3cc(NCC)c(C)cc3c(c2cc1C)c4ccccc4C(=O)OC,-1.3909846109,G1,3.8051400000000033,132.70389999999995,4.0,2.0,6.0,6.0,4.0,0.0,0.0,4.0,61.66,200.10406507752947,3.062496356212904e-06
4-ethoxyaniline,CCOc1ccc(N)cc1,-0.8608353259999999,G3,1.6675,42.02340000000001,2.0,1.0,2.0,2.0,1.0,0.0,0.0,1.0,35.25,60.61472327480977,2.693803452362809
3-(2-chlorophenyl)-3-oxopropanenitrile,Clc1ccccc1C(=O)CC#N,-2.1751395948,G1,2.43638,46.01250000000002,2.0,0.0,3.0,2.0,1.0,0.0,0.0,1.0,40.86,75.38359747108093,2.966312247577214
2-[(2-methylprop-2-enoyl)oxy]ethyl 3-oxobutanoate,CC(=O)CC(=O)OCCOC(=O)C(C)=C,-1.0636822045,G1,0.6280000000000001,52.03000000000003,5.0,0.0,5.0,6.0,0.0,0.0,0.0,0.0,69.67000000000002,88.04578378435981,3.545971120529369
"1,3-dihydro-2-benzofuran-1-one",O=C1OCc2ccccc12,-0.8627210528,G1,1.357,35.56150000000001,2.0,0.0,2.0,0.0,1.0,0.0,1.0,2.0,26.3,58.43052352431159,2.6100618752317595
"3-(5-imino-3-methyl-4,5-dihydro-1H-pyrazol-1-yl)benzene-1-sulfonic acid",CC1=NN(C(=N)C1)c2cccc(c2)[S](O)(=O)=O,-1.1387882185,G1,1.4965700000000002,64.18830000000003,4.0,2.0,7.0,2.0,1.0,0.0,1.0,2.0,93.82,98.82461960915803,2.446226843006028
1-benzylpiperidin-4-one,O=C1CCN(CC1)Cc2ccccc2,-1.0169828584,G1,1.8515,55.96000000000004,2.0,0.0,2.0,2.0,1.0,1.0,1.0,2.0,20.31,84.53658042259454,1.8946821990226328
methyl (2Z)-3-aminobut-2-enoate,COC(=O)\C=C(/C)N,-0.8059235439,G1,0.0218999999999999,29.960399999999996,3.0,1.0,3.0,1.0,0.0,0.0,0.0,0.0,52.32,48.12437447979509,3.7016454312284
silanedione magnesium sodium hydrofluoride,F.[Na].[MgH2].O=[Si]=O,-0.8566651273999999,G1,-1.7629,23.928,2.0,0.0,6.0,0.0,0.0,0.0,0.0,0.0,34.14,74.8141831876374,-6.666666638888889e-09
"1-N,1-N-bis(2-hydroxyethyl)benzene-1,4-bis(aminium) sulfate",Nc1ccc(cc1)N(CCO)CCO.O[S](O)(=O)=O,-0.2184130526,G1,-0.5929999999999997,71.41640000000004,6.0,5.0,9.0,5.0,1.0,0.0,0.0,1.0,144.32,111.2170682405154,5.554285332610438e-07
ammonium hydrogen carbonate,[NH4+].[NH4+].[Zn++].[Zn++].[O-]C([O-])=O.[O-]C([O-])=O.[O-]C([O-])=O,-0.2897617622,G3,-6.593600000000002,28.15760000000001,9.0,2.0,13.0,0.0,0.0,0.0,0.0,0.0,262.57,114.76892319001158,-1.3499999962500004e-08
disodium sulfanediide,[Na+].[Na+].[SH-],0.3524906593,G1,-6.262099999999999,8.76,1.0,0.0,3.0,0.0,0.0,0.0,0.0,0.0,0.0,71.38813146029504,-0.0
nickel(2+) ion diacetate,[Ni++].CC([O-])=O.CC([O-])=O,0.0005376801,G1,-2.490099999999999,21.36199999999999,4.0,0.0,5.0,0.0,0.0,0.0,0.0,0.0,80.25999999999999,62.79817284874024,-7.199999951999999e-08
"1,1,1,3,3,3-hexafluoropropan-2-ol",OC(C(F)(F)F)C(F)(F)F,0.020110333,G1,1.4719,18.1168,1.0,1.0,7.0,0.0,0.0,0.0,0.0,0.0,20.23,51.256581426376194,4.231132186198015
calcium diformate,[Ca++].[O-]C=O.[O-]C=O,0.1212110943,G1,-3.6486,17.881999999999998,4.0,0.0,5.0,0.0,0.0,0.0,0.0,0.0,80.25999999999999,70.13730399545913,-3.9999999812500013e-08
2-(acetyloxy)ethyl acetate,CC(=O)OCCOC(C)=O,0.068474963,G5,0.1126,33.26599999999999,4.0,0.0,4.0,3.0,0.0,0.0,0.0,0.0,52.6,59.11409625891388,3.0550899395377584
dioxodiarsoxane,[O--].[O--].[O--].[As+3].[As+3],-1.0458962962,G1,-1.118,13.5675,0.0,0.0,5.0,0.0,0.0,0.0,0.0,0.0,85.5,52.6831704822304,-0.0
"1,1,1,3,3,3-hexachloroacetone",ClC(Cl)(Cl)C(=O)C(Cl)(Cl)Cl,-1.1797979201,G1,3.2959,45.587,1.0,0.0,7.0,0.0,0.0,0.0,0.0,0.0,17.07,87.45025471795657,4.398990539719588
dibutoxyphosphinic acid,CCCCO[P](O)(=O)OCCCC,-1.0872511921,G3,2.720200000000001,51.54530000000004,3.0,1.0,5.0,8.0,0.0,0.0,0.0,0.0,55.760000000000005,79.86478071429066,3.4851076896510653
methoxyethene,COC=C,-0.5310304973,G3,0.7763,17.206,1.0,0.0,1.0,1.0,0.0,0.0,0.0,0.0,9.23,25.89307745394539,2.2968352619191386
2-ethoxyethyl 2-methylprop-2-enoate,CCOCCOC(=O)C(C)=C,-0.9674738601,G1,1.1422,42.26600000000001,3.0,0.0,3.0,5.0,0.0,0.0,0.0,0.0,35.53,66.99285535547907,3.2485759314192304
ethyl 2-chloro-3-oxobutanoate,CCOC(=O)C(Cl)C(C)=O,-0.9859492465,G5,0.7459,36.955000000000005,3.0,0.0,4.0,3.0,0.0,0.0,0.0,0.0,43.370000000000005,64.30381725628867,3.8231925262701543
1-(diethylamino)propan-2-ol,CCN(CC)CC(C)O,0.1021113643,G1,0.7089999999999999,39.4688,2.0,1.0,2.0,4.0,0.0,0.0,0.0,0.0,23.47,57.482971136608576,3.307394083663299
ethanethioamide,CC(N)=S,0.3363395335,G1,0.2924,22.4594,1.0,1.0,2.0,0.0,0.0,0.0,0.0,0.0,26.02,30.80286408644375,2.8030394876740514
1-methoxypropan-2-yl acetate,COCC(C)OC(C)=O,0.0830232388,G5,0.5844,33.10399999999999,3.0,0.0,3.0,3.0,0.0,0.0,0.0,0.0,35.53,54.95257415887011,3.259231489128124
"5,8,11,13,16,19-hexaoxatricosane",CCCCOCCOCCOCOCCOCCOCCCC,-1.3016357757,G1,2.643700000000001,89.86300000000008,6.0,0.0,6.0,20.0,0.0,0.0,0.0,0.0,55.38000000000001,141.25959623521658,2.9219621943934726
"3,6-dimethyl-1,4-dioxane-2,5-dione",CC1OC(=O)C(C)OC1=O,-0.9360258625,G1,-0.1366,31.10799999999999,4.0,0.0,4.0,0.0,0.0,1.0,1.0,1.0,52.6,58.10826510538464,2.631435737817297
bromo(chloro)methane,ClCBr,-0.8891641024,G2,1.5776,19.647,0.0,0.0,2.0,0.0,0.0,0.0,0.0,0.0,0.0,32.910064860352584,1.6329931618554523
2-aminobenzamide,NC(=O)c1ccccc1N,-0.9139223167,G1,0.3677,39.3723,2.0,2.0,3.0,1.0,1.0,0.0,0.0,1.0,69.11,58.63764872796276,3.1529414466808685
(3Z)-hex-3-en-1-ol,CC\C=C/CCO,-0.7858548038,G3,1.335,31.133799999999983,1.0,1.0,1.0,3.0,0.0,0.0,0.0,0.0,20.23,44.66859231982434,2.7771492902446893
"2-methoxy-3,4-dihydro-2H-pyran",COC1CCC=CO1,-0.853333105,G1,1.283,30.255999999999982,2.0,0.0,2.0,1.0,0.0,0.0,1.0,1.0,18.46,49.09561787311287,2.2684714749428534
"4,5-bis(hydroxymethyl)-2-methylpyridin-3-ol hydrochloride",[H+].[Cl-].Cc1ncc(CO)c(CO)c1O,-0.1117125827999999,G3,-2.803279999999999,43.59640000000002,4.0,3.0,5.0,2.0,1.0,0.0,0.0,1.0,73.58000000000001,83.76647032226629,0.0
tetrasodium tris(peroxol) dicarbonate,[Na+].[Na+].[Na+].[Na+].OO.OO.OO.[O-]C([O-])=O.[O-]C([O-])=O,-0.3094338224,G5,-16.82580000000002,26.5648,12.0,6.0,16.0,0.0,0.0,0.0,0.0,0.0,247.76,188.83438391645345,-7.920918352720711e-09
"Nonylphenol, ethoxylated",CCCCCCCCCc1ccc(OCCOCCO)cc1,-0.3045102393,G1,4.367400000000004,91.53880000000008,3.0,1.0,3.0,14.0,1.0,0.0,0.0,1.0,38.69,135.1969748178627,2.0588206075648365
amino(imino)methanaminium; cyanosulfanide,NC(N)=N.SC#N,1.106488088,G5,-0.76415,30.70050000000001,3.0,4.0,5.0,0.0,0.0,0.0,0.0,0.0,99.68,47.02280303391605,0.0
sodium dodecyl sulfate,[Na+].CCCCCCCCCCCCO[S]([O-])(=O)=O,-0.2838814082999999,G5,0.3880999999999996,67.49320000000006,4.0,0.0,6.0,12.0,0.0,0.0,0.0,0.0,66.43,134.11819902450975,0.0
"3-methyl-2-(2-oxo-1,3-diazinan-1-yl)butanoic acid",CC(C)C(N1CCCNC1=O)C(O)=O,-1.1028619258,G5,0.5108999999999999,50.98350000000003,2.0,2.0,5.0,3.0,0.0,1.0,1.0,1.0,69.64000000000001,83.07993059556816,2.753993523721548
1-cyanoprop-2-en-1-yl acetate,CC(=O)OC(C=C)C#N,-0.8986939452,G1,0.62768,31.363999999999987,3.0,0.0,3.0,2.0,0.0,0.0,0.0,0.0,50.09,53.54200557864768,3.730978910158575
2-methylcyclohexanol,CC1CCCCC1O,-0.864495868,G1,1.5574,33.63879999999999,1.0,1.0,1.0,0.0,0.0,1.0,1.0,1.0,20.23,50.71730631287597,2.2794002709583667
1-phenoxypropan-2-ol,CC(O)COc1ccccc1,-1.0034177306,G3,1.4462,43.61780000000003,2.0,1.0,2.0,3.0,1.0,0.0,0.0,1.0,29.46,66.43400844438968,2.392291165701933
2-(1-methylcarbamimidamido)acetic acid,CN(CC(O)=O)C(N)=N,-0.9387416733,G3,-1.1037299999999988,32.1799,2.0,3.0,5.0,2.0,0.0,0.0,0.0,0.0,90.41,52.574908589740026,3.632432151939845
2-methylaniline,Cc1ccccc1N,-0.8539252345,G4,1.57722,35.59139999999999,1.0,1.0,1.0,0.0,1.0,0.0,0.0,1.0,26.02,49.13623593090629,3.134861511345448
3-[(2-ethylhexyl)oxy]propan-1-amine,CCCCC(CC)COCCCN,-1.096509119,G1,2.5682,57.79640000000005,2.0,1.0,2.0,9.0,0.0,0.0,0.0,0.0,35.25,82.84210809831521,3.253702897046664
3-methylbutanal,CC(C)CC=O,-0.7590833569,G5,1.2314,25.518999999999988,1.0,0.0,1.0,2.0,0.0,0.0,0.0,0.0,17.07,38.36054158545974,2.8141442217770303
L-histidine monohydrochloride,[Cl-].N[C@@H](Cc1[nH]cnc1)C(O)=O.[H+],-0.1076498856,G1,-3.5193999999999974,39.01490000000001,3.0,3.0,6.0,3.0,1.0,0.0,0.0,1.0,92.0,76.88857603594505,0.0
pentasodium bis(phosphonatooxy)phosphinate,[Na+].[Na+].[Na+].[Na+].[Na+].[O-][P]([O-])(=O)O[P]([O-])(=O)O[P]([O-])([O-])=O,-0.3954232123,G1,-18.8346,24.9895,10.0,0.0,18.0,4.0,0.0,0.0,0.0,0.0,184.97,213.28839827041176,-7.199999529900033e-08
"sodium (2R)-2-[(1R)-1,2-dihydroxyethyl]-4-hydroxy-5-oxo-2,5-dihydrofuran-3-olate",[Na+].O[C@H](C[O-])[C@H]1OC(=C(O)C1=O)O,-0.1325447734,G1,-5.0353999999999965,33.03739999999999,6.0,3.0,7.0,2.0,0.0,0.0,1.0,1.0,110.05,95.73392937514576,1.4399996082001103e-06
2-methoxyethyl prop-2-enoate,COCCOC(=O)C=C,0.0439416783999999,G1,0.3620000000000001,33.03199999999999,3.0,0.0,3.0,4.0,0.0,0.0,0.0,0.0,35.53,54.262971126685855,3.0655033793880806
[(4-sulfamoylphenyl)amino]azanium chloride,[H+].[Cl-].NNc1ccc(cc1)[S](N)(=O)=O,-0.1912743698,G1,-3.2638999999999987,46.737300000000005,4.0,3.0,7.0,2.0,1.0,0.0,0.0,1.0,98.20999999999998,84.02985023182544,0.0
"1,1-dimethylurea",CN(C)C(N)=O,0.2124315669,G1,-0.3732999999999997,23.270399999999995,1.0,1.0,3.0,0.0,0.0,0.0,0.0,0.0,46.33,36.730381723882616,3.2575861612334887
potassium dicyanogolduide,[K+].[Au+].[C-]#N.[C-]#N,-0.3042087283,G1,-2.80576,9.936,2.0,0.0,4.0,0.0,0.0,0.0,0.0,0.0,47.58,95.45115120734906,-4.9999999958333325e-09
2-hydroxy-2-phenylacetic acid,OC(C(O)=O)c1ccccc1,-0.0321269405,G5,0.8046,39.03760000000002,2.0,2.0,3.0,2.0,1.0,0.0,0.0,1.0,57.53,63.91127695272596,2.851177890164404
"5,5-dimethylimidazolidine-2,4-dione",CC1(C)NC(=O)NC1=O,0.0384738201,G1,-0.3956000000000001,30.753399999999992,2.0,2.0,4.0,0.0,0.0,1.0,1.0,1.0,58.2,52.615956899190365,2.813681674411189
phenylphosphonic acid,O[P](O)(=O)c1ccccc1,-1.0269230581,G4,0.4895999999999999,38.12010000000002,1.0,2.0,4.0,1.0,1.0,0.0,0.0,1.0,57.53,58.48281104023684,3.087636787033165
"disodium 2-[(E)-2-[3-methyl-5-oxo-1-(4-sulfonatophenyl)-4,5-dihydro-1H-pyrazol-4-yl]diazen-1-yl]benzoate",[Na+].[Na+].CC1=NN(C(=O)C1N=Nc2ccccc2C([O-])=O)c3ccc(cc3)[S]([O-])(=O)=O,-1.491314993,G1,-5.1627999999999945,94.07670000000002,9.0,0.0,13.0,5.0,2.0,0.0,1.0,3.0,154.72,215.95215997255045,2.2499985849384198e-06
"sodium 4-[(dichloro-1,3,5-triazin-2-yl)amino]benzene-1-sulfonate",[Na+].[O-][S](=O)(=O)c1ccc(Nc2nc(Cl)nc(Cl)n2)cc1,-1.3810309201,G1,-1.1699,67.53490000000001,7.0,1.0,11.0,3.0,2.0,0.0,0.0,2.0,107.9,146.34587153852448,1.999998780500763e-06
formaldehyde; 2-(2-hydroxyethylamino)ethanol; 2-methyloxirane; 2-nonylphenol,CCCCCCCCCc1ccccc1O.CC2CO2.OCCNCCO.C=O,-1.4630694907,G1,3.4661000000000017,119.38010000000008,6.0,4.0,6.0,12.0,1.0,1.0,1.0,2.0,102.32,176.85471214104453,0.0
"2-[7-(diethylamino)-2-oxo-2H-1-benzopyran-3-yl]-1,3-dimethyl-1H-benzimidazolium chloride",[Cl-].CCN(CC)c1ccc2C=C(C(=O)Oc2c1)c3n(C)c4ccccc4[n+]3C,-1.4505613752000002,G1,0.6264000000000007,109.13400000000004,4.0,0.0,6.0,4.0,4.0,0.0,0.0,4.0,42.260000000000005,169.76949629736808,2.249997814314722e-06
4-methylpentan-2-one,CC(C)CC(C)=O,-0.8514795392,G5,1.6215,30.13599999999998,1.0,0.0,1.0,2.0,0.0,0.0,0.0,0.0,17.07,44.72548369985635,3.126006652390634
2-methoxyaniline,COc1ccccc1N,-0.9443240129,G3,1.2774,37.4064,2.0,1.0,2.0,1.0,1.0,0.0,0.0,1.0,35.25,54.24978116041317,3.0065240073265844
{2-[2-(ethenyloxy)ethoxy]ethoxy}ethene,C=COCCOCCOC=C,-1.0530702077,G1,1.3232,43.11700000000002,3.0,0.0,3.0,8.0,0.0,0.0,0.0,0.0,27.69,67.25527545275791,2.785899708691937
copper(2+) dinitrate,[Cu++].[O-][N+]([O-])=O.[O-][N+]([O-])=O,0.8661228867,G1,-0.4807000000000001,20.722800000000003,6.0,0.0,9.0,0.0,0.0,0.0,0.0,0.0,132.4,58.77825628753051,-7.199999951999999e-08
1H-pyrazole,[nH]1cccn1,1.2878896498,G2,0.4096999999999999,18.587699999999995,1.0,1.0,2.0,0.0,1.0,0.0,0.0,1.0,28.68,29.828665089862504,3.1250000000000004
[2-[[4-[(2-chloro-4-nitrophenyl)azo]phenyl]ethylamino]ethyl](2-hydroxypropyl)dimethylammonium acetate,CCN(CC[N+](C)(C)CC(C)O)c1ccc(cc1)N=Nc2ccc(cc2Cl)[N+]([O-])=O.CC([O-])=O,-0.5731459846,G1,3.703300000000002,130.81560000000005,8.0,1.0,11.0,10.0,2.0,0.0,0.0,2.0,131.45999999999998,204.39133996276132,1.3344994622146738e-06
[2-[[4-[(2-chloro-4-nitrophenyl)azo]phenyl]ethylamino]ethyl](2-hydroxypropyl)dimethylammonium chloride,[Cl-].CCN(CC[N+](C)(C)CC(C)O)c1ccc(cc1)N=Nc2ccc(cc2Cl)[N+]([O-])=O,-0.5518943050999999,G1,1.9511000000000007,120.13460000000006,6.0,1.0,10.0,10.0,2.0,0.0,0.0,2.0,91.32999999999998,193.85296198074852,4.804992154946684e-06
copper(2+) ion bis(5-oxopyrrolidine-2-carboxylate),[Cu++].[O-]C(=O)C1CCC(=O)N1.[O-]C(=O)C2CCC(=O)N2,-0.384250204,G1,-3.972699999999997,52.34340000000002,6.0,2.0,9.0,2.0,0.0,2.0,2.0,2.0,138.45999999999998,118.94779944787376,3.239999946180001e-07
1-hydroxypropan-2-yl 2-methylprop-2-enoate 2-hydroxypropyl 2-methylprop-2-enoate,CC(CO)OC(=O)C(C)=C,-0.0449315461,G1,0.4865000000000001,37.45380000000001,3.0,1.0,3.0,3.0,0.0,0.0,0.0,0.0,46.53,60.30860176377159,3.683207392748761
"7-methyl-3,4-dihydro-2H-1,5-benzodioxepin-3-one",Cc1ccc2OCC(=O)COc2c1,-1.1141554489,G1,1.3353199999999998,47.176000000000016,3.0,0.0,3.0,0.0,1.0,0.0,1.0,2.0,35.53,76.27395298261169,2.3504739021368395
"diethyl pyridine-2,4-dicarboxylate",CCOC(=O)c1ccnc(c1)C(=O)OCC,-1.2184148997,G1,1.435,56.15000000000003,5.0,0.0,5.0,4.0,1.0,0.0,0.0,1.0,65.49,93.39083844592442,2.860017285552168
2-hydroxy-2-methyl-1-phenylpropan-1-one,CC(C)(O)C(=O)c1ccccc1,-1.0915320913,G1,1.6402,47.07030000000003,2.0,1.0,2.0,2.0,1.0,0.0,0.0,1.0,37.3,71.84692742932317,2.944341945159362
"5-methyl-3a,4,7,7a-tetrahydro-2-benzofuran-1,3-dione",CC1=CCC2C(C1)C(=O)OC2=O,-1.0999943697,G1,1.0423,41.070000000000014,3.0,0.0,3.0,0.0,0.0,1.0,2.0,2.0,43.370000000000005,70.3941120333541,2.268028637257227
[(2-ethylhexyl)oxy]phosphonic acid,CCCCC(CC)CO.O[P](O)(O)=O,-1.2377892845,G2,1.2664999999999995,54.65470000000004,2.0,4.0,6.0,5.0,0.0,0.0,0.0,0.0,97.99,85.02622266539416,0.0
2-methylbutanal,CCC(C)C=O,-0.8212312637000001,G1,1.2314,25.518999999999988,1.0,0.0,1.0,2.0,0.0,0.0,0.0,0.0,17.07,38.36054158545974,2.964900494759057
"N,N-diisobutylformamide",CC(C)CN(CC(C)C)C=O,-1.082666634,G1,1.7568,47.31300000000002,1.0,0.0,2.0,5.0,0.0,0.0,0.0,0.0,20.31,69.58014371324954,3.665842809028223