Name,SMILES,Solubility,Group,MolLogP,MolMR,NumHAcceptors,NumHDonors,NumHeteroatoms,NumRotatableBonds,NumAromaticRings,NumSaturatedRings,NumAliphaticRings,RingCount,TPSA,LabuteASA,BalabanJ
daminozide,CN(C)NC(=O)CCC(O)=O,-0.2046,G1,-0.556,38.69949999999999,3.0,2.0,5.0,4.0,0.0,0.0,0.0,0.0,69.64000000000001,64.96107142614252,3.454102565319672
pentrinitrol,OCC(CO[N+]([O-])=O)(CO[N+]([O-])=O)CO[N+]([O-])=O,-1.585,G1,-1.4099999999999997,48.358000000000025,10.0,1.0,13.0,10.0,0.0,0.0,0.0,0.0,177.33999999999995,98.15493159206596,4.631441285746561
atratone,CCNc1nc(NC(C)C)nc(OC)n1,-2.0696,G5,1.1322999999999996,59.30140000000003,6.0,2.0,6.0,5.0,1.0,0.0,0.0,1.0,71.96000000000001,89.49326934543909,2.89174703245098
"2,4-pentadienenitrile",C=C\C=C/C#N,-0.7221,G1,1.25218,24.949999999999992,1.0,0.0,1.0,1.0,0.0,0.0,0.0,0.0,23.79,37.21239310251618,3.2618700080453773
malaoxon,CCOC(=O)CC(S[P](=O)(OC)OC)C(=O)OCC,-1.6223,G2,2.0054,70.88650000000004,8.0,0.0,9.0,9.0,0.0,0.0,0.0,0.0,88.13000000000001,116.13559024034568,4.80781070887242
1-heptanethiol,CCCCCCCS,-4.1549,G1,2.886600000000002,42.612000000000016,1.0,1.0,1.0,5.0,0.0,0.0,0.0,0.0,0.0,58.083970377610925,2.53006045688352
aldicarb sulfoxide,CNC(=O)O\N=C\C(C)(C)[S](C)=O,-0.8673,G1,0.4852999999999998,52.17810000000003,4.0,1.0,6.0,3.0,0.0,0.0,0.0,0.0,67.75999999999999,79.97744841628189,4.1161800672300695
aldicarb sulfone,CNC(=O)O\N=C\C(C)(C)[S](C)(=O)=O,-1.3469,G1,0.1513999999999999,52.95550000000003,5.0,1.0,7.0,3.0,0.0,0.0,0.0,0.0,84.82999999999998,83.22859259449255,4.45530255410108
"1,2-dichloro-1,1-difluoroethane",FC(F)(Cl)CCl,-2.2007,G1,2.0568,21.52,0.0,0.0,4.0,1.0,0.0,0.0,0.0,0.0,0.0,44.04179640184197,3.1684898726705697
2-undecanol,CCCCCCCCCC(C)O,-2.9418,G1,3.5079000000000025,54.29080000000004,1.0,1.0,1.0,8.0,0.0,0.0,0.0,0.0,20.23,77.18290592399165,2.817017140820483
"1-heptanol, 6-methyl-",CC(C)CCCCCO,-2.3038,G1,2.1951000000000005,40.3918,1.0,1.0,1.0,5.0,0.0,0.0,0.0,0.0,20.23,58.08807958080182,2.7466909068574954
"1,10-phenanthroline, 3,4,7,8-tetramethyl-",Cc1cnc2c(ccc3c(C)c(C)cnc23)c1C,-5.1939,G1,4.016680000000003,75.99200000000003,2.0,0.0,2.0,0.0,3.0,0.0,0.0,3.0,25.78,106.6937966024468,2.555901020010264
doxepin,CN(C)CC\C=C1/c2ccccc2COc3ccccc13,-3.9469,G1,3.9624000000000033,87.46600000000005,2.0,0.0,2.0,3.0,2.0,0.0,1.0,3.0,12.47,126.22103684033402,2.0659497027232017
ethylcyclohexane,CCC1CCCCC1,-4.2507,G1,2.976700000000002,36.86599999999999,0.0,0.0,0.0,1.0,0.0,1.0,1.0,1.0,0.0,52.288014675076575,2.125016255414672
alpha-pinene oxide,CC1(C)C2CC3OC3(C)C1C2,-2.5937,G1,2.2099,43.27300000000001,1.0,0.0,1.0,0.0,0.0,4.0,4.0,4.0,12.53,68.11978182631822,1.9803152559514368
"1(3h)isobenzofuranone-3,3-dimethyl",CC1(C)OC(=O)c2ccccc12,-1.8684,G1,2.0921000000000003,44.883500000000026,2.0,0.0,2.0,0.0,1.0,0.0,1.0,2.0,26.3,71.1604077531048,2.655732862156696
p-phenylazophenol,O=C1C=CC(C=C1)=NNc2ccccc2,-3.3429,G1,2.1495999999999995,60.78670000000002,3.0,1.0,3.0,2.0,1.0,0.0,1.0,2.0,41.46,87.8128613777258,2.0411951941103497
bromoxynil,Oc1c(Br)cc(cc1Br)C#N,-3.3284,G1,2.78888,48.22180000000001,2.0,1.0,4.0,0.0,1.0,0.0,0.0,1.0,44.02,80.71825387884101,3.348369660783097
bromoxynil octanoate,CCCCCCCC(=O)Oc1c(Br)cc(cc1Br)C#N,-6.7023,G1,5.349180000000004,85.56800000000004,3.0,0.0,5.0,7.0,1.0,0.0,0.0,1.0,50.09,136.11862437136853,2.521601062826903
"2-phenyl-4,5-dichloro-3-pyridazinone",ClC1=C(Cl)C(=O)N(N=C1)c2ccccc2,-3.3822,G1,2.5393,59.85400000000002,3.0,0.0,5.0,1.0,2.0,0.0,0.0,2.0,34.89,95.8742728962612,2.6602820094110218
chloridazon,NC1=C(Cl)C(=O)N(N=C1)c2ccccc2,-2.7436,G3,1.4680999999999995,59.256400000000006,4.0,1.0,5.0,1.0,2.0,0.0,0.0,2.0,60.91,90.91089736639223,2.6602820094110218
"3,6-dichloropicolinic acid",OC(=O)c1nc(Cl)ccc1Cl,-1.3884,G3,2.0866,41.2163,2.0,1.0,5.0,1.0,1.0,0.0,0.0,1.0,50.19,72.57828152084319,3.232208870305491
6-methylchrysene,Cc1cc2c3ccccc3ccc2c4ccccc14,-6.5715,G1,5.454620000000004,83.69700000000006,0.0,0.0,0.0,0.0,4.0,0.0,0.0,4.0,0.0,111.8413388290992,2.3371227357502997
isopropyl nitrate,CC(C)O[N+]([O-])=O,-1.4593,G1,0.6031,23.215399999999992,3.0,0.0,4.0,2.0,0.0,0.0,0.0,0.0,52.37,41.18969470810743,3.126006652390634
"1,1-dichlorofluoroethane",CC(F)(Cl)Cl,-2.4448,G1,2.1072,21.219,0.0,0.0,3.0,0.0,0.0,0.0,0.0,0.0,0.0,39.87626099891573,3.0237157840738176
"10h-phenothiazine, 2-chloro-7-methoxy-",COc1ccc2Nc3cc(Cl)ccc3Sc2c1,-4.9787,G1,4.556800000000002,71.85170000000002,3.0,1.0,4.0,1.0,2.0,0.0,1.0,3.0,21.26,108.93739195179025,2.0417818930080243
dehydroabietic acid,CC(C)c1ccc2c(CC[C@H]3[C@@](C)(CCC[C@]23C)C(O)=O)c1,-4.6582,G1,4.904900000000004,89.28780000000006,1.0,1.0,2.0,2.0,1.0,1.0,2.0,3.0,37.3,133.4846862662308,2.076113052634317
"[1,2,4,5]tetrazino[1,2-a][1,2,4,5]tetrazine, oct",C1NNCN2CNNCN12,-0.0128,G1,-2.448999999999998,35.68879999999999,6.0,4.0,6.0,0.0,0.0,2.0,2.0,2.0,54.6,59.45193919950476,1.9253677344386608
nicotinanilide,O=C(Nc1ccccc1)c2cccnc2,-3.093,G1,2.3339,58.632200000000026,2.0,1.0,3.0,2.0,2.0,0.0,0.0,2.0,41.99,87.7844717045559,2.1164219931177755
"1,2,3-benzothiadiazol-5-amine",Nc1ccc2snnc2c1,-1.3045,G1,1.2735,41.8274,4.0,1.0,4.0,0.0,2.0,0.0,0.0,2.0,51.8,61.642161137899535,2.860781632079713
"thiocyanic acid, ammonium salt",[NH4+].[S-]C#N,0.9178,G3,0.3905799999999999,18.962800000000005,2.0,1.0,3.0,0.0,0.0,0.0,0.0,0.0,60.29,30.422647736646606,0.0
"benzenemethanol, 2,4-dichloro-",OCc1ccc(Cl)cc1Cl,-2.248,G1,2.4857000000000005,42.38480000000002,1.0,1.0,3.0,1.0,1.0,0.0,0.0,1.0,20.23,69.19711143985293,3.06998271499884
"methane, chloronitro-",[O-][N+](=O)CCl,-0.281,G1,0.4593999999999999,17.714399999999998,2.0,0.0,4.0,1.0,0.0,0.0,0.0,0.0,43.14,33.695492977211025,2.847378923087672
"propanal, 2-(hydroxyimino)-, oxime",C\C(NO)=C/N=O,-0.3462,G1,0.5929,24.4742,4.0,2.0,4.0,2.0,0.0,0.0,0.0,0.0,61.69,40.77239864395103,3.4875567751094967
"3,4-dichlorobenzyl alcohol",OCc1ccc(Cl)c(Cl)c1,-2.0439,G1,2.4857000000000005,42.38480000000002,1.0,1.0,3.0,1.0,1.0,0.0,0.0,1.0,20.23,69.19711143985293,3.04361805911428
dibutyl phosphite,CCCCO[P+](=O)OCCCC,-1.4249,G1,3.2772000000000023,49.32650000000004,3.0,0.0,4.0,8.0,0.0,0.0,0.0,0.0,35.53,75.39898162447155,3.1032830489797623
"1,4-dichloronaphthalene",Clc1ccc(Cl)c2ccccc12,-5.3576,G3,4.146600000000002,53.96800000000002,0.0,0.0,2.0,0.0,2.0,0.0,0.0,2.0,0.0,80.71960010499551,2.946471324842402
"2-[(6-chloro-3-pyridazinyl)thio]-n,n-diethylacet",CCN(CC)C(=O)CSc1ccc(Cl)nn1,-1.7156,G1,2.0905,65.69400000000003,4.0,0.0,6.0,5.0,1.0,0.0,0.0,1.0,46.09,104.3765373586684,2.4492413621653952
nitrofen,[O-][N+](=O)c1ccc(Oc2ccc(Cl)cc2Cl)cc1,-5.4535,G1,4.693900000000002,69.63240000000002,3.0,0.0,6.0,3.0,2.0,0.0,0.0,2.0,52.370000000000005,112.861550731331,2.2056443902318965
chlornitrofen,[O-][N+](=O)c1ccc(Oc2c(Cl)cc(Cl)cc2Cl)cc1,-5.6201,G1,5.3473000000000015,74.64240000000001,3.0,0.0,7.0,3.0,2.0,0.0,0.0,2.0,52.370000000000005,123.16481695821268,2.2859816458822264
"4-heptanol, 3-methyl-",CCCC(O)C(C)CC,-1.8406,G1,2.1935,40.369800000000005,1.0,1.0,1.0,4.0,0.0,0.0,0.0,0.0,20.23,58.08807958080182,3.324760174025222
fluspirilene,Fc1ccc(cc1)C(CCCN2CCC3(CC2)N(CNC3=O)c4ccccc4)c5ccc(F)cc5,-4.6772,G1,5.305400000000005,134.21269999999996,3.0,1.0,6.0,7.0,3.0,2.0,2.0,5.0,35.58,205.11041491284027,1.2154019850501034
undecanedioic acid,OC(=O)CCCCCCCCCC(O)=O,-1.6274,G1,2.6665,56.82460000000004,2.0,2.0,4.0,10.0,0.0,0.0,0.0,0.0,74.6,90.30018387627524,2.9860783761566463
dimethyl tetrachloroterephthalate,COC(=O)c1c(Cl)c(Cl)c(c(Cl)c1Cl)C(=O)OC,-5.8221,G1,3.873400000000001,69.16100000000002,4.0,0.0,8.0,2.0,1.0,0.0,0.0,1.0,52.60000000000001,122.65437114371136,3.6568925941256207
tritac,CC(O)COCc1c(Cl)ccc(Cl)c1Cl,-3.5673,G1,3.544200000000002,62.80880000000003,2.0,1.0,5.0,4.0,1.0,0.0,0.0,1.0,29.46,103.7087492394313,2.713679888596874
ketamine,[H+].[Cl-].CNC1(CCCCC1=O)c2ccccc2Cl,-0.1369999999999999,G1,0.0143000000000006,66.77670000000003,2.0,1.0,4.0,2.0,1.0,1.0,1.0,2.0,29.1,114.63270889932244,1.444999709866727e-06
"phenol, 4-chloro-3,5-dimethyl-2-(phenylmethyl)-",Cc1cc(O)c(Cc2ccccc2)c(C)c1Cl,-4.3009,G1,4.253240000000003,71.83880000000003,1.0,1.0,2.0,2.0,2.0,0.0,0.0,2.0,20.23,106.68082364782848,2.432738690965598
"ethanediamide, n,n'-bis(2-hydroxyethyl)-",OCCNC(=O)C(=O)NCCO,-0.1124,G1,-2.7965999999999984,40.191,4.0,4.0,6.0,4.0,0.0,0.0,0.0,0.0,98.66,69.57519767150822,3.547260332536222
psicofuranine,Nc1ncnc2n(cnc12)[C@]3(CO)O[C@H](CO)[C@@H](O)[C@H]3O,-1.5701,G1,-2.8334999999999986,68.7676,10.0,5.0,10.0,3.0,2.0,1.0,1.0,3.0,159.77,118.0053359698354,2.169037879531668
o-methylphenoxyacetic acid,Cc1ccccc1OCC(O)=O,-2.4424,G1,1.45842,44.30980000000002,2.0,1.0,3.0,3.0,1.0,0.0,0.0,1.0,46.53,70.59553054443344,2.628507002147093
o-nitrophenoxyacetic acid,OC(=O)COc1ccccc1[N+]([O-])=O,-2.016,G1,1.0582,46.22720000000002,4.0,1.0,6.0,4.0,1.0,0.0,0.0,1.0,89.66999999999999,78.88356415253662,2.844190583560692
di-tert-butylsulfone,CC(C)(C)[S](=O)(=O)C(C)(C)C,-1.2177,G1,1.9982,48.42580000000003,2.0,0.0,3.0,0.0,0.0,0.0,0.0,0.0,34.14,69.91924421039238,5.1082272010688285
perchloropropylene,ClC(Cl)=C(Cl)C(Cl)(Cl)Cl,-4.1651,G1,4.2421,44.87500000000001,0.0,0.0,6.0,0.0,0.0,0.0,0.0,0.0,0.0,82.59912958572853,4.399515870465618
"2-furancarboxaldehyde, 5-bromo-",Brc1oc(C=O)cc1,-1.544,G1,1.8546,31.795499999999997,2.0,0.0,3.0,1.0,1.0,0.0,0.0,1.0,30.21,54.61974420365553,2.9963515694932705
ipazine,CCN(CC)c1nc(Cl)nc(NC(C)C)n1,-3.7849,G1,2.1915,67.15670000000003,5.0,1.0,6.0,5.0,1.0,0.0,0.0,1.0,53.940000000000005,101.25790394380584,2.967455813245785
"2-furancarboxylic acid, 5-methyl-",Cc1oc(cc1)C(O)=O,-0.8243,G1,1.28622,30.40429999999999,2.0,1.0,3.0,1.0,1.0,0.0,0.0,1.0,50.440000000000005,51.91137246460679,2.977648531786832
"2-furancarboxaldehyde, 5-(methoxymethyl)-",COCc1oc(C=O)cc1,-0.4992,G3,1.2385,34.8085,3.0,0.0,3.0,3.0,1.0,0.0,0.0,1.0,39.44,58.59562605631426,2.677365428803547
picloram,Nc1c(Cl)c(Cl)nc(C(O)=O)c1Cl,-2.7494,G3,2.3222,50.63869999999999,3.0,2.0,7.0,1.0,1.0,0.0,0.0,1.0,76.21000000000001,88.22143844473759,3.497381360537993
dipropalin,CCCN(CCC)c1c(cc(C)cc1[N+]([O-])=O)[N+]([O-])=O,-2.9663,G1,3.437820000000002,77.28280000000002,5.0,0.0,7.0,7.0,1.0,0.0,0.0,1.0,89.51999999999998,117.05178303547618,3.519592130740869
"2,6-di-t-butyl-p-tolyl methylcarbamate",CNC(=O)Oc1c(cc(C)cc1C(C)(C)C)C(C)(C)C,-4.598,G1,4.308220000000004,83.66270000000006,2.0,1.0,3.0,1.0,1.0,0.0,0.0,1.0,38.33,122.27069589101832,3.5839975759713067
10h-phenothiazin-3-ol,Oc1ccc2Nc3ccccc3Sc2c1,-2.5748,G1,3.6004000000000005,61.95450000000002,3.0,2.0,3.0,0.0,2.0,0.0,1.0,3.0,32.26,91.94987213320104,2.108606050374169
"2,4-d, methyl ester",COC(=O)COc1ccc(Cl)cc1Cl,-2.9596,G1,2.5452000000000004,53.97300000000002,3.0,0.0,5.0,3.0,1.0,0.0,0.0,1.0,35.53,91.52137447550764,2.6321748000640026
"2,4,5-t, ethyl ester",CCOC(=O)COc1cc(Cl)c(Cl)cc1Cl,-4.8493,G1,3.588700000000002,63.60000000000002,3.0,0.0,6.0,4.0,1.0,0.0,0.0,1.0,35.53,108.18958281678592,2.6709856086940738
"2,4-d, octyl ester",CCCCCCCCOC(=O)COc1ccc(Cl)cc1Cl,-7.0217,G1,5.2759000000000045,86.29200000000004,3.0,0.0,5.0,10.0,1.0,0.0,0.0,1.0,35.53,136.0759692762839,2.109061009235428
"2,4-d, propyl ester",CCCOC(=O)COc1ccc(Cl)cc1Cl,-4.2502,G1,3.325400000000002,63.20700000000003,3.0,0.0,5.0,5.0,1.0,0.0,0.0,1.0,35.53,104.25125870430088,2.449851880586933
p-meo-b-phenylpropionic acid,COc1ccc(CCC(O)=O)cc1,-2.2144,G1,1.7124,48.95080000000002,2.0,1.0,3.0,4.0,1.0,0.0,0.0,1.0,46.53,76.96047265883007,2.5375612644950314
"2,4-d, butoxyethyl ester",CCCCOCCOC(=O)COc1ccc(Cl)cc1Cl,-4.4276,G1,3.732100000000002,78.64300000000004,4.0,0.0,6.0,9.0,1.0,0.0,0.0,1.0,44.760000000000005,128.4596302769976,2.1625713992357176
benzthiazuron,CNC(=O)Nc1sc2ccccc2n1,-4.2373,G1,2.0476,57.69840000000001,3.0,2.0,5.0,1.0,2.0,0.0,0.0,2.0,54.02,84.96420959864324,2.3104906039484137
chlorotrinitromethane,[O-][N+](=O)C(Cl)([N+]([O-])=O)[N+]([O-])=O,-1.9259,G1,-0.3334000000000001,29.567200000000003,6.0,0.0,10.0,3.0,0.0,0.0,0.0,0.0,129.42000000000002,63.00144442221063,4.985152095352672
"1,2-cyclohexanediol, 1-methyl-4-(1-methylethenyl",CC(=C)C1CCC(C)(O)C(O)C1,-0.2311,G1,1.4745,48.78560000000003,2.0,2.0,2.0,1.0,0.0,1.0,1.0,1.0,40.46,73.91676337607755,2.578346290671329
propane-1-thiosulfinic acid s-propyl ester,CCCS[S](=O)CCC,-0.9199,G1,2.2033000000000005,46.049400000000034,2.0,0.0,3.0,5.0,0.0,0.0,0.0,0.0,17.07,63.4612879151034,3.0613168393721577
"1,3-benzenedicarboxylic acid, 2-methoxy-",COc1c(cccc1C(O)=O)C(O)=O,-2.2926,G1,1.0916,46.912600000000005,3.0,2.0,5.0,3.0,1.0,0.0,0.0,1.0,83.83000000000001,79.55128639667323,3.3940405061093943
"propanoic acid, 4-nitrophenyl ester",CCC(=O)Oc1ccc(cc1)[N+]([O-])=O,-3.8925,G1,1.9102,49.02240000000001,4.0,0.0,5.0,3.0,1.0,0.0,0.0,1.0,69.44,80.45427251473723,2.7334192841065263
"pentanoic acid, 4-nitrophenyl ester",CCCCC(=O)Oc1ccc(cc1)[N+]([O-])=O,-4.3945,G1,2.690400000000001,58.25640000000003,4.0,0.0,5.0,5.0,1.0,0.0,0.0,1.0,69.44,93.18415674353044,2.54705117822066
"l-valine, n-glycyl-",CC(C)C(NC(=O)CN)C(O)=O,0.4579,G1,-0.829499999999999,43.4589,3.0,3.0,5.0,4.0,0.0,0.0,0.0,0.0,92.42000000000002,70.93593454711349,4.141657487850216
"hexanediamide, n,n'-bis(2-hydroxyethyl)-",OCCNC(=O)CCCCC(=O)NCCO,0.4121,G1,-1.2361999999999986,58.659000000000034,4.0,4.0,6.0,9.0,0.0,0.0,0.0,0.0,98.66,95.0349661290947,3.312575555451382
"3,4-dichlorobenzyl methylcarbamate",CNC(=O)OCc1ccc(Cl)c(Cl)c1,-3.1389,G1,2.849400000000001,55.70670000000002,2.0,1.0,5.0,2.0,1.0,0.0,0.0,1.0,38.33,91.9576914296088,2.5970898202238173
chlorbufam,CC(OC(=O)Nc1cccc(Cl)c1)C#C,-2.6172,G1,2.910200000000001,59.85070000000002,2.0,1.0,4.0,2.0,1.0,0.0,0.0,1.0,38.33,93.38353482337963,2.5583630009752976
p-bromophenylurea,NC(=O)Nc1ccc(Br)cc1,-1.6336,G1,1.9397,47.34810000000001,1.0,2.0,4.0,1.0,1.0,0.0,0.0,1.0,55.120000000000005,72.71516782019947,2.7362980721056545
1-bromo-2-ethylbenzene,CCc1ccccc1Br,-3.6702,G1,3.0115000000000016,43.52000000000002,0.0,0.0,1.0,1.0,1.0,0.0,0.0,1.0,0.0,64.02883495393154,3.0065240073265844
chloroxuron,CN(C)C(=O)Nc1ccc(Oc2ccc(Cl)cc2)cc1,-4.8953,G1,4.225800000000003,80.67370000000004,2.0,1.0,5.0,3.0,2.0,0.0,0.0,2.0,41.57000000000001,122.47135307899455,2.0092277497890008
siduron,CC1CCCCC1NC(=O)Nc2ccccc2,-4.1108,G1,3.386800000000001,70.01640000000005,1.0,2.0,3.0,2.0,1.0,1.0,1.0,2.0,41.13,102.60635534840048,1.8444317603693567
"benzene, 1,2-dichloro-3-methoxy-",COc1cccc(Cl)c1Cl,-3.309,G1,3.0020000000000016,43.01400000000002,1.0,0.0,3.0,1.0,1.0,0.0,0.0,1.0,9.23,69.5164229171638,3.14303948130643
"benzene, 1,3-dichloro-2-methoxy-",COc1c(Cl)cccc1Cl,-3.1019,G1,3.0020000000000007,43.01400000000002,1.0,0.0,3.0,1.0,1.0,0.0,0.0,1.0,9.23,69.5164229171638,3.1694511920127173
"2-propenamide, 3-(2-nitrophenyl)-",NC(=O)C=Cc1ccccc1[N+]([O-])=O,-1.2837,G1,1.0933000000000002,51.3248,3.0,1.0,5.0,3.0,1.0,0.0,0.0,1.0,86.22999999999999,79.9910149500588,3.0744652861118364
"1h-purine, 6-methyl-",Cc1ncnc2nc[nH]c12,0.1735,G1,0.6613199999999999,36.4207,3.0,1.0,4.0,0.0,2.0,0.0,0.0,2.0,54.46,57.34611412948261,2.950090305322589
butylate,CCSC(=O)N(CC(C)C)CC(C)C,-3.684,G1,3.4735000000000023,64.77700000000004,2.0,0.0,3.0,5.0,0.0,0.0,0.0,0.0,20.31,92.433137967408,4.151457931255603
"4-imidazolidinone, 3-phenyl-2-thioxo-",O=C1CNC(=S)N1c2ccccc2,-3.2425,G1,0.9077000000000004,54.528700000000015,2.0,1.0,4.0,1.0,1.0,1.0,1.0,2.0,32.34,81.35039651021762,2.3555706101534835
n-decylamine,CCCCCCCCCCN,-2.4564,G1,3.0858000000000008,51.66440000000003,1.0,1.0,1.0,8.0,0.0,0.0,0.0,0.0,26.02,71.36362075441176,2.6909155266923976
ethyl b-phenylpropionate,CCOC(=O)CCc1ccccc1,-2.9086,G1,2.1823,51.39600000000004,2.0,0.0,2.0,4.0,1.0,0.0,0.0,1.0,26.3,78.53118102103066,2.310042822879905
aminocarb,CNC(=O)Oc1ccc(N(C)C)c(C)c1,-2.3572,G1,1.77922,60.58970000000003,3.0,1.0,4.0,2.0,1.0,0.0,0.0,1.0,41.57,89.84087687484205,2.8663948066468974
methiocarb,CNC(=O)Oc1cc(C)c(SC)c(C)c1,-3.9214,G3,2.743540000000001,62.78070000000003,3.0,1.0,4.0,2.0,1.0,0.0,0.0,1.0,38.33,94.20415323000393,2.980889961781368
propylcyclopentane,CCCC1CCCC1,-4.7404,G1,2.976700000000002,36.86599999999999,0.0,0.0,0.0,2.0,0.0,1.0,1.0,1.0,0.0,52.28801467507659,2.0584046167758574
"propanamide, 2-hydroxy-",CC(O)C(N)=O,0.9435,G1,-1.1475000000000002,20.875200000000003,2.0,2.0,3.0,1.0,0.0,0.0,0.0,0.0,63.32,35.76478180587526,3.2575861612334887
diethyl pimelate,CCOC(=O)CCCCCC(=O)OCC,-2.0408,G3,2.0631,56.35100000000004,4.0,0.0,4.0,8.0,0.0,0.0,0.0,0.0,52.60000000000001,90.93880683089694,3.241244851575438
diethyl suberate,CCOC(=O)CCCCCCC(=O)OCC,-2.5304,G1,2.4532000000000007,60.968000000000046,4.0,0.0,4.0,9.0,0.0,0.0,0.0,0.0,52.60000000000001,97.30374894529356,3.2089000399030327
"1,2-dichloronaphthalene",Clc1ccc2ccccc2c1Cl,-6.1611,G1,4.146600000000001,53.96800000000002,0.0,0.0,2.0,0.0,2.0,0.0,0.0,2.0,0.0,80.71960010499551,2.9077745072579826
"1,8-dichloronaphthalene",Clc1cccc2cccc(Cl)c12,-5.7963,G1,4.146600000000001,53.96800000000002,0.0,0.0,2.0,0.0,2.0,0.0,0.0,2.0,0.0,80.7196001049955,2.9609415115705566
"2,4-dihydroxyazobenzene",OC/1=CC(=O)C=CC1=N/Nc2ccccc2,-3.0299,G1,2.0353,62.35850000000002,4.0,2.0,4.0,2.0,1.0,0.0,1.0,2.0,61.69,92.6070951299218,2.1196043409156973
"dl-allothreonine, o-methyl-",COC(C)C(N)C(O)=O,0.4853,G3,-0.5668000000000002,32.08219999999999,3.0,2.0,4.0,3.0,0.0,0.0,0.0,0.0,72.55000000000001,53.60821126417535,3.716136771182721
"phenol, 4,4'-(3-methylbutylidene)bis-",CC(C)CC(c1ccc(O)cc1)c2ccc(O)cc2,-3.3674,G1,4.275800000000004,77.51160000000004,2.0,2.0,2.0,4.0,2.0,0.0,0.0,2.0,40.46,113.90167540193607,2.3464546554518786
"pentanedioic acid, 2,4-dimethyl-",C[C@@H](C[C@@H](C)C([O-])=O)C([O-])=O,-0.4564,G1,-1.8514999999999997,32.95899999999998,4.0,0.0,4.0,4.0,0.0,0.0,0.0,0.0,80.25999999999999,64.84041541868874,3.844226696925943
clorexolone,N[S](=O)(=O)c1cc2c(CN(C3CCCCC3)C2=O)cc1Cl,-4.3128,G1,2.2759,79.57170000000002,3.0,1.0,7.0,2.0,1.0,1.0,2.0,3.0,80.47,128.664566314168,1.962881598550872
"benzene, 1-bromo-3-isothiocyanato-",Brc1cccc(c1)N=C=S,-4.0851,G1,3.1834000000000007,48.82800000000001,2.0,0.0,3.0,1.0,1.0,0.0,0.0,1.0,12.36,72.91799557259993,3.061972168711611
flumethasone,C[C@@H]1C[C@H]2[C@@H]3C[C@H](F)C4=CC(=O)C=C[C@]4(C)[C@@]3(F)[C@@H](O)C[C@]2(C)[C@@]1(O)C(=O)CO,-5.6133,G1,1.8437,100.22340000000004,5.0,3.0,7.0,2.0,0.0,3.0,4.0,4.0,94.83,168.0373210142009,1.870214328192292
"1,3-benzenediol, 4-cyclohexyl-",Oc1ccc(C2CCCCC2)c(O)c1,-2.5763,G1,3.145500000000001,55.59760000000004,2.0,2.0,2.0,1.0,1.0,1.0,1.0,2.0,40.46,84.20369215673944,2.21597172582517
endosulfan diol,OCC1C(CO)C2(Cl)C(=C(Cl)C1(Cl)C2(Cl)Cl)Cl,-3.0802,G1,3.0489,71.48860000000002,2.0,2.0,8.0,2.0,0.0,1.0,2.0,2.0,40.46,128.36558746944175,2.716115159554925
"benzoic acid, 2-(4-bromobenzoyl)-",OC(=O)c1ccccc1C(=O)c2ccc(Br)cc2,-3.0074,G1,3.378300000000001,70.97580000000002,2.0,1.0,4.0,3.0,2.0,0.0,0.0,2.0,54.37,112.20320711227912,2.459795907470056
4-ethylamino-6-isopropylamino-s-triazin-2-ol,CCNC1=NC(=O)N=C(NC(C)C)N1,-4.5241,G1,0.4169999999999994,55.57510000000002,5.0,3.0,6.0,4.0,1.0,0.0,0.0,1.0,82.69999999999999,82.17630410157938,2.8902051322153888
msma,[Na+].C[As](O)([O-])=O,0.5539999999999999,G1,-4.657799999999999,14.5233,2.0,1.0,5.0,0.0,0.0,0.0,0.0,0.0,60.36,61.03745142759831,0.0
lenacil,O=C1NC2=C(CCC2)C(=O)N1C3CCCCC3,-4.5916,G1,1.5305,65.46970000000003,3.0,1.0,4.0,1.0,1.0,1.0,2.0,3.0,54.86,99.67653149058388,2.100410447007261
dicryl,CC(=C)C(=O)Nc1ccc(Cl)c(Cl)c1,-4.4325,G1,3.508000000000002,59.90570000000002,1.0,1.0,4.0,2.0,1.0,0.0,0.0,1.0,29.1,92.51948528231428,2.831519833414496
bcpc,CCC(C)OC(=O)Nc1cccc(Cl)c1,-3.1727,G1,3.687000000000002,61.30870000000003,2.0,1.0,4.0,3.0,1.0,0.0,0.0,1.0,38.33,94.38430943152036,2.511727299171399
"naphthalene, 2-(2-methylpropoxy)-",CC(C)COc1ccc2ccccc2c1,-5.2117,G2,3.8746000000000023,64.28100000000003,1.0,0.0,1.0,3.0,2.0,0.0,0.0,2.0,9.23,90.6863813383255,2.228482483774148
"2,7-dichloronaphthalene",Clc1ccc2ccc(Cl)cc2c1,-5.9217,G1,4.146600000000001,53.968000000000025,0.0,0.0,2.0,0.0,2.0,0.0,0.0,2.0,0.0,80.71960010499551,2.797846408466882
"1h-pyrrole-2-carboxylic acid, 3,5-dimethyl-, eth",CCOC(=O)c1[nH]c(C)cc1C,-2.6212,G1,1.80824,46.22320000000003,2.0,1.0,3.0,2.0,1.0,0.0,0.0,1.0,42.09,71.74034144204494,2.86584548320798