Name,SMILES,Solubility,Group,MolLogP,MolMR,NumHAcceptors,NumHDonors,NumHeteroatoms,NumRotatableBonds,NumAromaticRings,NumSaturatedRings,NumAliphaticRings,RingCount,TPSA,LabuteASA,BalabanJ
"2,2,2-trichloroethane-1,1-diol",OC(O)C(Cl)(Cl)Cl,1.0371672978,G5,0.6672999999999998,28.5156,2.0,2.0,5.0,0.0,0.0,0.0,0.0,0.0,40.46,55.602459327263205,3.541196965079901
"disodium (5E)-5-[2-(2-methoxy-5-methyl-4-sulfonatophenyl)hydrazin-1-ylidene]-6-oxo-5,6-dihydronaphthalene-2-sulfonate",[Na+].[Na+].COc1cc(c(C)cc1N\N=C2\C(=O)C=Cc3cc(ccc23)[S]([O-])(=O)=O)[S]([O-])(=O)=O,-0.4405855136,G3,-4.768079999999992,104.3001,10.0,1.0,14.0,5.0,2.0,0.0,1.0,3.0,165.08999999999995,228.7571751109861,2.559998350601092e-06
5-hydroxyisophthalic acid,OC(=O)c1cc(O)cc(c1)C(O)=O,-2.005111367,G3,0.7886,42.025400000000005,3.0,3.0,5.0,2.0,1.0,0.0,0.0,1.0,94.83,72.86703280496575,3.263407613099897
"1,6-bis(propan-2-yl) hexanedioate",CC(C)OC(=O)CCCCC(=O)OC(C)C,-3.1070289759,G1,2.45,60.92400000000005,4.0,0.0,4.0,7.0,0.0,0.0,0.0,0.0,52.60000000000001,97.30374894529352,3.457671280304928
"2,2,5-trimethyl-5-pentylcyclopentanone",CCCCCC1(C)CCC(C)(C)C1=O,-4.0165337106,G1,3.962100000000003,60.27100000000005,1.0,0.0,1.0,4.0,0.0,1.0,1.0,1.0,17.07,88.2742473471034,2.545870557311077
cyclododecanol,OC1CCCCCCCCCCC1,-3.9891177261,G3,3.652000000000003,56.79380000000005,1.0,1.0,1.0,0.0,0.0,1.0,1.0,1.0,20.23,82.54201688485905,2.1079581635972864
"3,3,4,4,5,5,6,6,7,7,8,8,8-tridecafluorooctan-1-ol",OCCC(F)(F)C(F)(F)C(F)(F)C(F)(F)C(F)(F)C(F)(F)F,-4.2870640225,G1,4.107600000000001,42.49280000000001,1.0,1.0,14.0,6.0,0.0,0.0,0.0,0.0,20.23,112.24003981884286,6.112592581333274
"bis(2,2,6,6-tetramethylpiperidin-4-yl) decanedioate",CC1(C)CNCC(C)(C)C1OC(=O)CCCCCCCCC(=O)OC2C(C)(C)CNCC2(C)C,-4.4077469895,G1,5.242000000000004,137.5594,6.0,2.0,6.0,11.0,0.0,2.0,2.0,2.0,76.66,208.2308848357969,1.5706657102257011
"1,1,5-trimethylhept-6-en-1-yl acetate",CC(CCCC(C)(C)OC(C)=O)C=C,-4.0301641261,G1,3.320500000000002,59.057000000000045,2.0,0.0,2.0,6.0,0.0,0.0,0.0,0.0,26.3,87.33907858355862,3.752160171335592
"1,2-bis(2-methylpropyl) cyclohexane-1,2-dicarboxylate",CC(C)COC(=O)C1CCCCC1C(=O)OCC(C)C,-4.1912351395,G1,3.191200000000002,77.04200000000006,4.0,0.0,4.0,6.0,0.0,1.0,1.0,1.0,52.60000000000001,121.75768624935073,2.563737388196326
"3,3,5-trimethylcyclohexyl prop-2-enoate",CC1CC(CC(C)(C)C1)OC(=O)C=C,-4.0304470853,G1,2.930400000000001,56.87300000000004,2.0,0.0,2.0,2.0,0.0,1.0,1.0,1.0,26.3,86.3332474300294,2.535133450602644
cyclohexyl(phenyl)methanone,O=C(C1CCCCC1)c2ccccc2,-4.014709734599999,G1,3.449600000000002,57.34750000000004,1.0,0.0,1.0,2.0,1.0,1.0,1.0,2.0,17.07,85.14168886678777,2.074474019699133
"tris(1,3-dichloropropan-2-yl) phosphate",ClCC(CCl)O[P](=O)(OC(CCl)CCl)OC(CCl)CCl,-4.3767049743,G3,4.682900000000003,86.54550000000003,4.0,0.0,11.0,12.0,0.0,0.0,0.0,0.0,44.760000000000005,148.36863166728816,4.947205147936471
"1,2,3-trichlorobenzene",Clc1cccc(Cl)c1Cl,-4.003482074,G5,3.6468000000000007,41.47200000000001,0.0,0.0,3.0,0.0,1.0,0.0,0.0,1.0,0.0,68.34120180014197,3.2478347337367026
"methyl 2,4-dihydroxy-3,6-dimethylbenzoate",COC(=O)c1c(C)cc(O)c(C)c1O,-4.037430925,G1,1.5012399999999997,50.585100000000025,4.0,2.0,4.0,1.0,1.0,0.0,0.0,1.0,66.76,81.75470641102606,3.437213165629622
sodium iodide,[Na+].[I-],1.0777960404,G1,-5.992,0.0,0.0,0.0,2.0,0.0,0.0,0.0,0.0,0.0,0.0,52.92566979924951,0.0
4-(4-amino-3-chlorophenyl)-2-chloroaniline dihydrochloride,[H+].[H+].[Cl-].[Cl-].Nc1ccc(cc1Cl)c2ccc(N)c(Cl)c2,-3.2628695302,G1,-1.9421999999999984,72.94680000000001,2.0,2.0,6.0,1.0,2.0,0.0,0.0,2.0,52.04,131.05059441743964,-7.224999286000071e-07
4-methyl-1-(propan-2-yl)cyclohex-3-en-1-ol,CC(C)C1(O)CCC(=CC1)C,-1.9409970697,G3,2.5037000000000003,47.39580000000002,1.0,1.0,1.0,1.0,0.0,0.0,1.0,1.0,20.23,69.12252962388153,2.637067423359619
"1-(chloromethyl)-4-fluoro-1,4-diazabicyclo[2.2.2]octane-1,4-diium; bis(tetrafluoroboranuide)",F[B-](F)(F)F.F[B-](F)(F)F.F[N+]12CC[N+](CCl)(CC1)CC2,-0.3038119023,G1,3.328000000000002,61.92280000000004,0.0,0.0,14.0,1.0,0.0,3.0,3.0,3.0,0.0,120.3073012563884,3.399999941362501e-07
"1,4-dimethoxy-2-nitrobenzene",COc1ccc(OC)c(c1)[N+]([O-])=O,-3.0173250803,G3,1.612,46.200400000000016,4.0,0.0,5.0,3.0,1.0,0.0,0.0,1.0,61.6,75.04135352980374,3.175529228703851
3-iodoprop-2-yn-1-yl N-butylcarbamate,CCCCNC(=O)OCC#CI,-3.2033373628,G5,1.9086,56.054700000000025,2.0,1.0,4.0,4.0,0.0,0.0,0.0,0.0,38.33,86.3798388546674,3.2547207620095517
"5-nitro-2,3-dihydro-1H-1,2,4-triazol-3-one",[O-][N+](=O)C1=NC(=O)NN1,-0.8786253202,G1,-0.9938000000000002,25.8628,4.0,2.0,7.0,1.0,1.0,0.0,0.0,1.0,104.67999999999998,47.86281089335258,3.12237209752183
"5-amino-6-methyl-2,3-dihydro-1H-1,3-benzodiazol-2-one",Cc1cc2NC(=O)Nc2cc1N,-1.9771384819,G3,0.74682,48.0688,2.0,3.0,4.0,0.0,2.0,0.0,0.0,2.0,74.67,68.40823096464607,2.915474885978318
2-(tert-butylperoxy)-2-methylpropane,CC(C)(C)OOC(C)(C)C,-2.9320403696,G3,2.531600000000001,41.67600000000001,2.0,0.0,2.0,1.0,0.0,0.0,0.0,0.0,18.46,63.45023160335785,3.563001750182873
ethyl 3-phenylacrylate,CCOC(=O)\C=C\c1ccccc1,-3.0130467638,G3,2.2629,52.10900000000003,2.0,0.0,2.0,3.0,1.0,0.0,0.0,1.0,26.3,77.8415779888464,2.538214333042918
"sodium 2-[(4-hydroxy-9,10-dioxo-9,10-dihydroanthracen-1-yl)amino]-5-methylbenzene-1-sulfonate",[Na+].Cc1ccc(Nc2ccc(O)c3C(=O)c4ccccc4C(=O)c23)c(c1)[S]([O-])(=O)=O,-2.4023932811,G3,0.1277200000000001,103.83870000000005,7.0,2.0,9.0,3.0,3.0,0.0,1.0,4.0,123.6,194.34376248992984,2.559997189869837e-06
"2,3-dihydro-1,2-benzothiazol-3-one",O=C1NSc2ccccc12,-1.9472895459,G5,1.5896,42.445700000000016,2.0,1.0,3.0,0.0,2.0,0.0,0.0,2.0,32.86,61.27569099157935,3.070614737543394
2-methyl-1-[4-(methylsulfanyl)phenyl]-2-(morpholin-4-yl)propan-1-one,CSc1ccc(cc1)C(=O)C(C)(C)N2CCOCC2,-4.1933811426,G1,2.702000000000001,79.02450000000005,4.0,0.0,4.0,4.0,1.0,1.0,1.0,2.0,29.540000000000003,118.86806202065648,2.154650094726593
Isolongifolanone,CC1(C)C2CCC3(C2)C1C(=O)CCC3(C)C,-4.0976122125,G3,3.818000000000003,65.06700000000005,1.0,0.0,1.0,0.0,0.0,3.0,3.0,3.0,17.07,98.99246926883812,2.1375574290078867
"1,1-dimethylpropyl 2-(ethylperoxy)hexanoate",CCCCC(CC)C(=O)OOC(C)(C)CC,-4.116871778,G1,3.8662000000000023,64.85300000000005,3.0,0.0,3.0,8.0,0.0,0.0,0.0,0.0,35.53,99.43646427538464,4.014652518464185
"1,1-dimethoxycyclododecane",COC1(CCCCCCCCCCC1)OC,-4.125654351600001,G1,4.280200000000004,67.53600000000006,2.0,0.0,2.0,2.0,0.0,1.0,1.0,1.0,18.46,100.70475782047,2.4083973495952407
"5-[(5-sulfanylidene-4,5-dihydro-1,3,4-thiadiazol-2-yl)disulfanyl]-2,3-dihydro-1,3,4-thiadiazole-2-thione",S=C1NN=C(SSC2=NNC(=S)S2)S1,-3.2522133148,G1,3.51418,66.3114,8.0,2.0,10.0,3.0,2.0,0.0,0.0,2.0,57.36,104.94846555846937,2.009003670325101
nonan-2-one,CCCCCCCC(C)=O,-2.9303113789,G3,2.935900000000002,44.057000000000016,1.0,0.0,1.0,6.0,0.0,0.0,0.0,0.0,17.07,63.82031004304618,2.8385891218139165
"1-methyl-2,4-dinitrobenzene; 2-methyl-1,3-dinitrobenzene",Cc1ccc(cc1[N+]([O-])=O)[N+]([O-])=O,-3.040285322,G5,1.8114200000000005,44.487800000000014,4.0,0.0,6.0,2.0,1.0,0.0,0.0,1.0,86.28,73.10229667889317,3.267052212361692
"Phosphorodithioic acid, mixed O,O-bis(iso-Bu and pentyl) esters, zinc salts",[Zn++].CC(C)CO[P]([S-])(=S)OCC(C)C.CC(C)CO[P]([S-])(=S)OCC(C)C,-2.5192483347,G1,6.203500000000007,126.46000000000006,8.0,0.0,11.0,12.0,0.0,0.0,0.0,0.0,36.92,200.9505411211122,-4.114285596428574e-07
4-[(3-hydroxypropyl)amino]-3-nitrophenol,OCCCNc1ccc(O)cc1[N+]([O-])=O,-2.1105897103,G3,1.0946999999999996,54.95370000000002,5.0,3.0,6.0,5.0,1.0,0.0,0.0,1.0,95.63,86.31753487318664,2.812006596448641
ethyl 2-methyl-4-oxo-6-pentylcyclohex-2-ene-1-carboxylate,CCCCCC1CC(=O)C=C(C)C1C(=O)OCC,-3.187166345,G1,3.2813000000000017,71.13600000000004,3.0,0.0,3.0,6.0,0.0,0.0,1.0,1.0,43.370000000000005,109.58959587326298,2.7355920049619518
"8-[(4-amino-3-nitrophenyl)diazenyl]-7-hydroxy-N,N,N-trimethylnaphthalen-2-aminium chloride",[Cl-].C[N+](C)(C)c1ccc2C=CC(=O)C(=N/Nc3ccc(N)c(c3)[N+]([O-])=O)\c2c1,-1.3972424196000002,G1,-0.2101999999999963,107.71750000000004,6.0,2.0,9.0,4.0,2.0,0.0,1.0,3.0,110.62,168.0402655592313,2.803330300661709e-06
"1,2-xylene",Cc1ccccc1C,-2.8191677601,G5,2.30344,35.916,0.0,0.0,0.0,0.0,1.0,0.0,0.0,1.0,0.0,50.16128734829018,3.134861511345448
"1,4-xylene",Cc1ccc(C)cc1,-2.8191677601,G5,2.30344,35.916,0.0,0.0,0.0,0.0,1.0,0.0,0.0,1.0,0.0,50.16128734829017,3.0324555320336755
"2,3,4,5,6,7-hexahydro-1H-isoindole-1,3-dione",O=C1NC(=O)C2=C1CCCC2,-1.974517726,G1,0.5133999999999999,38.64370000000002,2.0,1.0,3.0,0.0,0.0,0.0,2.0,2.0,46.17,64.46548687305867,2.399261940825008
2-phenylethyl 2-methylpropanoate,CC(C)C(=O)OCCc1ccccc1,-3.0797644375,G5,2.4283,55.94300000000004,2.0,0.0,2.0,4.0,1.0,0.0,0.0,1.0,26.3,84.89612313542726,2.2575072289904474
"4-(2,6,6-trimethylcyclohex-1-en-1-yl)but-3-en-2-one",CC(=O)/C=C/C1=C(C)CCCC1(C)C,-3.0798638184,G5,3.6582000000000026,60.15300000000004,1.0,0.0,1.0,2.0,0.0,0.0,1.0,1.0,17.07,86.89504128273488,2.96127747123545
"N,N-dimethyldecan-1-amine",CCCCCCCCCCN(C)C,-4.0452878346,G3,3.6887000000000025,61.16400000000006,1.0,0.0,1.0,9.0,0.0,0.0,0.0,0.0,3.24,84.51344795639562,2.8354061560854147
ethyl 3-[(diisopropoxyphosphorothioyl)sulfanyl]propanoate,CCOC(=O)CCS[P](=S)(OC(C)C)OC(C)C,-4.2747784981,G1,3.7473000000000023,80.43500000000006,6.0,0.0,7.0,9.0,0.0,0.0,0.0,0.0,44.760000000000005,119.05578245392948,4.247063580992732
4-Tricyclodecylidene butanal,O=CCC\C=C1/CC2CC1C3CCCC23,-4.090187912699999,G1,3.3480000000000025,60.426000000000045,1.0,0.0,1.0,3.0,0.0,3.0,3.0,3.0,17.07,91.93792412225729,1.6974354216778158
2-methyloctane-2-thiol,CCCCCCC(C)(C)S,-3.9901601094,G5,3.6652000000000022,51.82400000000004,1.0,1.0,1.0,5.0,0.0,0.0,0.0,0.0,0.0,70.81385460640415,3.0437584089734577
"3,7-dimethyloct-6-en-1-yl formate",CC(CCOC=O)CCC=C(C)C,-4.0559608323,G1,2.9320000000000013,54.46200000000004,2.0,0.0,2.0,7.0,0.0,0.0,0.0,0.0,26.3,80.97413646916202,3.3431482385923896
O-(4-bromo-2-chlorophenyl) O-ethyl S-propyl thiophosphate,CCCS[P](=O)(OCC)Oc1ccc(Br)cc1Cl,-4.365622838,G3,5.7691000000000034,81.76150000000004,4.0,0.0,7.0,7.0,1.0,0.0,0.0,1.0,35.53,124.9886530478484,2.8510032626884056
2-methyldecanal,CCCCCCCCC(C)C=O,-4.0270844645,G3,3.5720000000000027,53.22100000000004,1.0,0.0,1.0,8.0,0.0,0.0,0.0,0.0,17.07,76.5501942718394,2.947948425070748
"dimethyl 2,5-dioxocyclohexane-1,4-dicarboxylate",COC(=O)C1CC(=O)C(CC1=O)C(=O)OC,-4.1541956574,G1,-0.5032000000000003,50.26000000000002,6.0,0.0,6.0,2.0,0.0,1.0,1.0,1.0,86.74000000000001,91.89107776305862,2.783822919621312
2-(chloromethyl)oxirane; 4-[2-(4-hydroxyphenyl)propan-2-yl]phenol; 2-methyloxirane,CC1CO1.CC(C)(c2ccc(O)cc2)c3ccc(O)cc3.ClCC4CO4,-4.3744000378,G1,4.452800000000004,104.21560000000004,4.0,2.0,5.0,3.0,2.0,2.0,2.0,4.0,65.52,159.89180054541794,2.1779219846567635e-07
zinc(2+) ion selenite,[Zn++].[O-][Se]([O-])=O,-4.0799654344,G1,-2.8801,6.440499999999999,3.0,0.0,5.0,0.0,0.0,0.0,0.0,0.0,63.19,46.49720042983951,0.0
"3-methyl-N-nitro-3,6-dihydro-2H-1,3,5-oxadiazin-4-amine",CN1COCN=C1N[N+]([O-])=O,-1.0022923277,G1,-0.9993,36.14710000000001,5.0,1.0,7.0,1.0,0.0,0.0,1.0,1.0,80.0,62.76992152940333,2.5332708578711545
"(2R,3R,4S,5R)-2-(6-hydroxy-9H-purin-9-yl)-5-(hydroxymethyl)oxolane-3,4-diol",OCC1OC(C(O)C1O)n2cnc3C(=O)N=CNc23,-1.2298486435,G1,-2.2688999999999995,61.158100000000026,8.0,4.0,9.0,2.0,2.0,1.0,1.0,3.0,133.49,105.66779150627382,2.0600493624191287
"2,3,6-trimethylphenol",Cc1ccc(C)c(O)c1C,-1.9355008883,G3,2.3174600000000005,42.31780000000001,1.0,1.0,1.0,0.0,1.0,0.0,0.0,1.0,20.23,61.32046321488279,3.3421538077705124
"1,3-xylene",Cc1cccc(C)c1,-2.8328690378,G5,2.30344,35.916,0.0,0.0,0.0,0.0,1.0,0.0,0.0,1.0,0.0,50.16128734829017,3.077660437970554
2-octanamidoacetic acid,CCCCCCCC(=O)NCC(O)=O,-2.1115375925,G1,1.5477,54.02150000000003,2.0,2.0,4.0,8.0,0.0,0.0,0.0,0.0,66.4,84.69087019329064,3.2247663403096944
"(1,5,5-trimethyl-6-bicyclo[2.2.1]heptanyl) acetate",CC(=O)OC1C(C)(C)C2CCC1(C)C2,-3.8745968837,G1,2.7643000000000013,54.78300000000005,2.0,0.0,2.0,1.0,0.0,2.0,2.0,2.0,26.3,86.01701930868443,2.251543469814042
Dioxosilane,O=[Si]=O,-3.6026675784,G5,-0.6184000000000001,7.126999999999999,2.0,0.0,3.0,0.0,0.0,0.0,0.0,0.0,34.14,19.40222479242814,3.2659863237109046
(2S)-2-{[(benzyloxy)carbonyl]amino}-2-cyclohexylacetic acid,OC(=O)[C@@H](NC(=O)OCc1ccccc1)C2CCCCC2,-3.2854336032,G1,2.9463000000000017,77.76150000000004,3.0,2.0,5.0,5.0,1.0,1.0,1.0,2.0,75.63000000000001,123.85567847533233,1.8442813404765876
"(4E)-3-methyl-5-(2,6,6-trimethylcyclohex-1-en-1-yl)penta-1,4-dien-3-ol",CC1=C(/C=C/C(C)(O)C=C)C(C)(C)CCC1,-3.164147933,G1,4.006200000000003,70.29280000000004,1.0,1.0,1.0,3.0,0.0,0.0,1.0,1.0,20.23,99.56803413149606,2.980955499379733
methyl oct-2-ynoate,CCCCCC#CC(=O)OC,-3.0091327736,G1,1.7431,43.93400000000002,2.0,0.0,2.0,3.0,0.0,0.0,0.0,0.0,26.3,67.93308066441232,3.3233795465551847
manganese(2+) ion diphosphinate,[Mn++].[O-]P=O.[O-]P=O,-0.0813040923,G1,-0.8957000000000002,15.213,4.0,0.0,7.0,0.0,0.0,0.0,0.0,0.0,80.25999999999999,53.9771878420327,-3.9999999812500013e-08
"1,2-dimethyl-3-nitrobenzene",Cc1cccc(c1C)[N+]([O-])=O,-3.0033599893000003,G3,2.21164,42.57040000000002,2.0,0.0,3.0,1.0,1.0,0.0,0.0,1.0,43.14,64.81426307078998,3.273580821537543
phenyl 2-hydroxybenzoate,Oc1ccccc1C(=O)Oc2ccccc2,-3.1547687559,G1,2.6114000000000006,59.50730000000002,3.0,1.0,3.0,2.0,2.0,0.0,0.0,2.0,46.53,92.92274052170428,2.186811345762867
"3,7-dimethyloct-6-en-1-yl acetate",CC(CCOC(C)=O)CCC=C(C)C,-4.095938730199999,G1,3.3221000000000025,59.07900000000004,2.0,0.0,2.0,6.0,0.0,0.0,0.0,0.0,26.3,87.33907858355862,3.411265110824837
"3,3,4,4,5,5,6,6,6-nonafluorohex-1-ene",FC(F)(F)C(F)(F)C(F)(F)C(F)(F)C=C,-4.1979376007,G1,3.6406,31.092999999999996,0.0,0.0,9.0,3.0,0.0,0.0,0.0,0.0,0.0,77.36417719396447,5.4745447748931415
2-phenylethyl 2-phenylacetate,O=C(Cc1ccccc1)OCCc2ccccc2,-4.1887477927,G3,3.015000000000001,71.25100000000005,2.0,0.0,2.0,5.0,2.0,0.0,0.0,2.0,26.3,107.2233331126981,1.7257772363989228
"2-({2,2-bis[(prop-2-enoyloxy)methyl]butoxy}methyl)-2-[(prop-2-enoyloxy)methyl]butyl prop-2-enoate",CCC(COCC(CC)(COC(=O)C=C)COC(=O)C=C)(COC(=O)C=C)COC(=O)C=C,-4.4927855243,G1,2.712600000000001,120.89100000000008,9.0,0.0,9.0,18.0,0.0,0.0,0.0,0.0,114.43,194.588322077924,5.504374787969021
"(2,4,6-trioxo-1,3,5-triazine-1,3,5(2H,4H,6H)-triyl)tri-2,1-ethanediyl triacrylate",C=CC(=O)OCCN1C(=O)N(CCOC(=O)C=C)C(=O)N(CCOC(=O)C=C)C1=O,-2.4514194624,G1,-1.640699999999996,102.69000000000004,12.0,0.0,12.0,12.0,1.0,0.0,0.0,1.0,144.9,169.43535243030206,3.238800859505443
"Octanoic acid, ester with 1,2,3-propanetriol",CCCCCCCC(O)=O.OCC(O)CO,-3.2000007811,G1,0.7633999999999999,61.19020000000005,4.0,4.0,5.0,8.0,0.0,0.0,0.0,0.0,97.99,96.73296043415267,0.0
4-isopropylbenzonitrile,CC(C)c1ccc(cc1)C#N,-2.9887953027,G1,2.681680000000001,45.24600000000003,1.0,0.0,1.0,1.0,1.0,0.0,0.0,1.0,23.79,67.2837512585521,2.938904553897646
"1,2-bis(prop-2-en-1-yl) benzene-1,2-dicarboxylate",C=CCOC(=O)c1ccccc1C(=O)OCC=C,-3.2211356868000003,G5,2.3722000000000003,67.40100000000002,4.0,0.0,4.0,6.0,1.0,0.0,0.0,1.0,52.60000000000001,105.52186862940262,2.907709957142368
"1,3-diphenylguanidine",NC(Nc1ccccc1)=Nc2ccccc2,-2.1575163863,G4,2.744900000000001,67.78910000000002,1.0,2.0,3.0,2.0,2.0,0.0,0.0,2.0,50.41,94.6385148064385,2.0909283750699563
2-methylpropane-2-thiol,CC(C)(C)S,-1.7878458675,G1,1.7147,28.738999999999987,1.0,1.0,1.0,0.0,0.0,0.0,0.0,0.0,0.0,38.9891440344211,3.0237157840738176
"3,3,5-trimethylcyclohexanol",CC1CC(O)CC(C)(C)C1,-1.9916598479,G3,2.1935,42.80280000000001,1.0,1.0,1.0,0.0,0.0,1.0,1.0,1.0,20.23,63.44719054166919,2.509938883631114
"N,N-dimethylaniline",CN(C)c1ccccc1,-1.9220736974,G3,1.7526,40.76900000000002,1.0,0.0,1.0,1.0,1.0,0.0,0.0,1.0,3.24,55.92112101849355,2.848234050597751
"1-chloro-2,5-dimethoxy-4-nitrobenzene",COc1cc(c(OC)cc1Cl)[N+]([O-])=O,-3.1793123652999995,G1,2.2654000000000005,51.21040000000001,4.0,0.0,6.0,3.0,1.0,0.0,0.0,1.0,61.6,85.3446197566854,3.3196563058007738
potassium iodide,[K+].[I-],0.935222717,G5,-5.992,0.0,0.0,0.0,2.0,0.0,0.0,0.0,0.0,0.0,0.0,73.43483487190015,0.0
(2E)-3-phenylprop-2-enal,O=C/C=C/c1ccccc1,-1.9688182578,G5,1.8987,41.54000000000002,1.0,0.0,1.0,2.0,1.0,0.0,0.0,1.0,17.07,59.998148530546295,2.7587670006154434
"1,1,2,2,3,3,4,4,4-nonafluoro-N-(2-hydroxyethyl)-N-methylbutane-1-sulfonamide",CN(CCO)[S](=O)(=O)C(F)(F)C(F)(F)C(F)(F)C(F)(F)F,-3.4036850425,G1,1.666,49.53160000000001,3.0,1.0,14.0,6.0,0.0,0.0,0.0,0.0,57.61,111.73356565535975,6.016497113809933
"N-[(8E)-1,5-dimethylbicyclo[3.2.1]octan-8-ylidene]hydroxylamine",CC12CCCC(C)(CC1)C2=NO,-3.0741522071,G1,2.8069000000000006,48.52050000000003,2.0,1.0,2.0,0.0,0.0,2.0,2.0,2.0,32.59,73.65566248787468,2.419585593361867
N-(4-hydroxyphenyl)acetamide,CC(=O)Nc1ccc(O)cc1,-1.0333232127,G5,1.3505999999999998,42.41050000000002,2.0,2.0,3.0,1.0,1.0,0.0,0.0,1.0,49.33,64.66690538413799,2.7362980721056545
(e)-But-2-enedioate,[Fe++].[O-]C(=O)\C=C/C([O-])=O,-2.0840678994,G1,-2.9601,19.154,4.0,0.0,5.0,2.0,0.0,0.0,0.0,0.0,80.25999999999999,61.65160631553543,0.0
"(2E)-1-(2,6,6-trimethylcyclohex-2-en-1-yl)but-2-en-1-one",C/C=C/C(=O)C1C(=CCCC1(C)C)C,-3.1378557654000003,G1,3.5141000000000027,60.08300000000004,1.0,0.0,1.0,2.0,0.0,0.0,1.0,1.0,17.07,86.89504128273487,2.9673183494972557
2-methyl-4-nitroaniline,Cc1cc(ccc1N)[N+]([O-])=O,-3.0361524841,G1,1.48542,42.24580000000001,3.0,1.0,4.0,1.0,1.0,0.0,0.0,1.0,69.16,63.789211653406085,3.1515496683060507
nonan-1-ol,CCCCCCCCCO,-3.0130118711,G5,2.7293000000000016,45.078800000000015,1.0,1.0,1.0,7.0,0.0,0.0,0.0,0.0,20.23,64.45302169519843,2.6476048489438337
"dipropyl cyclohexane-1,2-dicarboxylate",CCCOC(=O)C1CCCCC1C(=O)OCCC,-3.2626917327,G1,2.699200000000001,67.94800000000005,4.0,0.0,4.0,6.0,0.0,1.0,1.0,1.0,52.60000000000001,109.02780202055752,2.552620702925421
"2-(4-aminophenyl)-6-methyl-1,3-benzothiazole-7-sulfonic acid",Cc1ccc2nc(sc2c1[S](O)(=O)=O)c3ccc(N)cc3,-4.3324994616,G1,3.10062,84.02000000000001,5.0,2.0,7.0,2.0,3.0,0.0,0.0,3.0,93.28,125.36364193010417,2.2791319755010497
"1,4-dioxacycloheptadecane-5,17-dione",O=C1CCCCCCCCCCCC(=O)OCCO1,-4.2616951793,G5,3.377500000000002,72.70500000000006,4.0,0.0,4.0,0.0,0.0,1.0,1.0,1.0,52.60000000000001,115.39274413495416,2.216244891666003
5-chloro-2-(4-chlorophenoxy)phenol,Oc1cc(Cl)ccc1Oc2ccc(Cl)cc2,-4.2393931239,G5,4.491300000000002,64.64280000000002,2.0,1.0,4.0,2.0,2.0,0.0,0.0,2.0,29.46,103.00280876102724,2.233817117740491
"(3E)-3,7-dimethylocta-1,3,6-triene",CC(C)=CC\C=C(/C)C=C,-3.9729302572,G1,3.4750000000000023,48.00200000000003,0.0,0.0,0.0,3.0,0.0,0.0,0.0,0.0,0.0,63.95492096084625,3.735272764128649
"tert-butyl 3,5,5-trimethylhexaneperoxoate",CC(CC(=O)OOC(C)(C)C)CC(C)(C)C,-4.2100961015,G1,3.722100000000003,64.78300000000006,3.0,0.0,3.0,4.0,0.0,0.0,0.0,0.0,35.53,99.43646427538464,3.8824280862669087
"N~2~-(4,6-diamino-1,3,5-triazin-2-yl)-1,3,5-triazine-2,4,6-triamine",Nc1nc(N)nc(Nc2nc(N)nc(N)n2)n1,-4.2253369782,G5,-1.871000000000001,60.58629999999997,11.0,5.0,11.0,2.0,2.0,0.0,0.0,2.0,193.45,94.71581018289892,2.305198639989204
butyl 2-({[(2-butoxy-2-oxoethyl)sulfanyl]methyl}sulfanyl)acetate,CCCCOC(=O)CSCSCC(=O)OCCCC,-4.3430778582,G1,3.096900000000001,81.51700000000005,6.0,0.0,6.0,12.0,0.0,0.0,0.0,0.0,52.60000000000001,123.91491111042065,3.29301947433518
methyl 1-methyl-4-(propan-2-yl)bicyclo[2.2.2]oct-5-ene-2-carboxylate,COC(=O)C1CC2(CCC1(C)C=C2)C(C)C,-4.2008661255,G1,3.1780000000000017,63.87500000000004,2.0,0.0,2.0,2.0,0.0,1.0,3.0,3.0,26.3,98.05730050529336,2.3353559949103664
methylcyclohexane,CC1CCCCC1,-3.8459348013,G3,2.5866000000000007,32.24899999999998,0.0,0.0,0.0,0.0,0.0,1.0,1.0,1.0,0.0,45.92307256067996,2.1229179499593664
2-phenylpropane-2-peroxol,CC(C)(OO)c1ccccc1,-1.0393798776,G1,2.4113000000000007,43.18180000000002,2.0,1.0,2.0,2.0,1.0,0.0,0.0,1.0,29.46,66.36330376012798,2.9284445313943723
7-oxabicyclo[4.1.0]heptan-3-ylmethyl 7-oxabicyclo[4.1.0]heptane-3-carboxylate,O=C(OCC1CCC2OC2C1)C3CCC4OC4C3,-1.2604846902,G1,1.6646,62.96300000000005,4.0,0.0,4.0,3.0,0.0,4.0,4.0,4.0,51.36,106.96233168943292,1.2253013720397457