Name,SMILES,Solubility,Group,MolLogP,MolMR,NumHAcceptors,NumHDonors,NumHeteroatoms,NumRotatableBonds,NumAromaticRings,NumSaturatedRings,NumAliphaticRings,RingCount,TPSA,LabuteASA,BalabanJ
2-phenylethyl pivalate,CC(C)(C)C(=O)OCCc1ccccc1,-3.6752800895,G1,2.8184000000000013,60.560000000000045,2.0,0.0,2.0,3.0,1.0,0.0,0.0,1.0,26.3,91.26106524982389,2.3167486080633783
1-cyclohexylethyl acetate,CC(OC(C)=O)C1CCCCC1,-3.5976237668,G1,2.518300000000001,47.803000000000026,2.0,0.0,2.0,2.0,0.0,1.0,1.0,1.0,26.3,74.29296623342044,2.288661508909127
"4-(2,6,6-trimethylcyclohex-1-en-1-yl)butan-2-one",CC(=O)CCC1=C(C)CCCC1(C)C,-3.6550445763,G1,3.882200000000004,60.24700000000005,1.0,0.0,1.0,3.0,0.0,0.0,1.0,1.0,17.07,87.58464431491913,2.745230748291537
bromo(ethyl)triphenylphosphorane,[Br-].CC[P+](c1ccccc1)(c2ccccc2)c3ccccc3,-0.9372185286,G1,1.0044000000000004,95.68900000000004,0.0,0.0,2.0,4.0,3.0,0.0,0.0,3.0,0.0,143.87275833323486,1.7633322772506531e-06
"benzyl({[(2,6-dimethylphenyl)carbamoyl]methyl})diethylazanium benzoate hydrate",CC[N+](CC)(CC(=O)Nc1c(C)cccc1C)Cc2ccccc2.[O-]C(=O)c3ccccc3,-1.020958606,G3,4.348840000000004,131.6736,3.0,1.0,5.0,8.0,3.0,0.0,0.0,3.0,69.22999999999999,196.83778912181052,3.5731477943970845e-07
hexan-1-ol,CCCCCCO,-1.382910122,G5,1.559,31.22779999999998,1.0,1.0,1.0,4.0,0.0,0.0,0.0,0.0,20.23,45.35819535200859,2.447472887876344
5-methyl-2-(propan-2-yl)cyclohexan-1-ol,CC(C)[C@@H]1CC[C@@H](C)C[C@H]1O,-2.5706235426,G5,2.439500000000001,47.34980000000002,1.0,1.0,1.0,1.0,0.0,1.0,1.0,1.0,20.23,69.8121326560658,2.437159260034696
"(2E,6E)-3,7-dimethylnona-2,6-dienenitrile",CC/C(C)=C/CC/C(C)=C/C#N,-3.5896411422,G1,3.592780000000002,52.65200000000004,1.0,0.0,1.0,4.0,0.0,0.0,0.0,0.0,23.79,75.40204578889583,3.716287221385498
5-hexyl-5-methyldihydrofuran-2(3H)-one,CCCCCCC1(C)CCC(=O)O1,-2.6432618239,G1,3.052500000000002,52.490000000000045,2.0,0.0,2.0,5.0,0.0,1.0,1.0,1.0,26.3,80.65790834781706,2.160330979024147
2-methoxy-2-methylpropane,COC(C)(C)C,-0.3235268543,G5,1.4313,26.761999999999983,1.0,0.0,1.0,0.0,0.0,0.0,0.0,0.0,9.23,39.31256471492286,3.168489872670569
sodium 2-amino-5-nitrobenzenesulfonate,[Na+].Nc1ccc(cc1[S]([O-])(=O)=O)[N+]([O-])=O,-1.7677385178999998,G1,-2.9148999999999985,45.472,6.0,1.0,9.0,2.0,1.0,0.0,0.0,1.0,126.36,107.46630517176204,1.9599994255335077e-06
Patchoulialcohol,C[C@H]1CCC2(O)C(C)(C)C3CC[C@@]2(C)C1C3,-3.7259038203,G1,3.6098000000000026,66.06680000000006,1.0,1.0,1.0,0.0,0.0,4.0,4.0,4.0,20.23,99.62518092099036,2.1292894147623307
dibenzylamine,C(NCc1ccccc1)c2ccccc2,-2.6876302374,G1,2.9764000000000017,63.42770000000004,1.0,1.0,1.0,4.0,2.0,0.0,0.0,2.0,12.03,90.76824373796228,1.8095807579695853
"5-methyl-1H-1,2,3-benzotriazole",Cc1cccc2n[nH]nc12,-1.5169635388,G1,1.26632,38.6257,2.0,1.0,3.0,0.0,2.0,0.0,0.0,2.0,41.57,58.06337328534556,2.950090305322589
3-amino-2-hydroxy-5-nitrobenzene-1-sulfonic acid,Nc1cc(cc(c1O)[S](O)(=O)=O)[N+]([O-])=O,-1.7662055678,G1,0.1292999999999999,48.9882,6.0,3.0,9.0,2.0,1.0,0.0,0.0,1.0,143.76000000000002,83.8471393012461,3.5947539886334807
"1,2-dimethyl benzene-1,2-dicarboxylate",COC(=O)c1ccccc1C(=O)OC,-1.6861579246,G5,1.2597999999999998,49.12100000000002,4.0,0.0,4.0,2.0,1.0,0.0,0.0,1.0,52.60000000000001,81.44130623618467,3.153839931025287
"4-{bis[4-(dimethylamino)phenyl]methylidene}-N,N-dimethylcyclohexa-2,5-dien-1-iminium chloride",[Cl-].CN(C)c1ccc(cc1)[C+](c2ccc(cc2)N(C)C)c3ccc(cc3)N(C)C,-2.0085884627,G1,1.9077900000000008,122.85600000000008,3.0,0.0,4.0,6.0,3.0,0.0,0.0,3.0,9.72,181.53278059556084,2.9999965560041325e-06
6-heptyloxan-2-one,CCCCCC1CCCC(=O)O1,-1.6290322311,G1,2.6624000000000008,47.87300000000003,2.0,0.0,2.0,4.0,0.0,1.0,1.0,1.0,26.3,74.29296623342044,2.097727745725677
"ethyl 4,4,4-trifluoro-3-oxobutanoate",CCOC(=O)CC(=O)C(F)(F)F,-1.6630244633000002,G3,1.0710000000000002,32.31199999999999,3.0,0.0,6.0,3.0,0.0,0.0,0.0,0.0,43.370000000000005,66.4971572381857,3.93718701617912
"oxydiethane-2,1-diyl dinitrate",[O-][N+](=O)OCCOCCO[N+]([O-])=O,-1.6904508209,G5,-0.5804,36.71180000000001,7.0,0.0,9.0,8.0,0.0,0.0,0.0,0.0,113.97000000000004,72.38874150349555,2.9961049979124525
diphenylsilanediol,O[Si](O)(c1ccccc1)c2ccccc2,-2.7330206215,G1,0.2275999999999995,62.343600000000045,2.0,2.0,3.0,2.0,2.0,0.0,0.0,2.0,40.46,89.70460913314665,2.442186510719565
pentyl pentanoate,CCCCCOC(=O)CCCC,-3.6244813037,G1,2.910000000000001,50.00900000000004,2.0,0.0,2.0,7.0,0.0,0.0,0.0,0.0,26.3,75.29879738694966,3.0837207939517115
"3-methyl-1-({3-[(3-methyl-2,5-dioxo-2,5-dihydro-1H-pyrrol-1-yl)methyl]phenyl}methyl)-2,5-dihydro-1H-pyrrole-2,5-dione",CC1=CC(=O)N(Cc2cccc(CN3C(=O)C=C(C)C3=O)c2)C1=O,-3.9003349932,G1,1.3168,85.07000000000004,4.0,0.0,6.0,4.0,1.0,0.0,2.0,3.0,74.76,138.58559586141112,1.7383246128906031
nickel(2+) ion oxalate,[Ni++].[O-]C(=O)C([O-])=O,-3.556228502,G3,-3.5163,10.014,4.0,0.0,5.0,0.0,0.0,0.0,0.0,0.0,80.25999999999999,49.06245746641779,0.0
(3Z)-hex-3-en-1-yl benzoate,CC\C=C/CCOC(=O)c1ccccc1,-3.7048974167,G1,3.1997000000000018,60.77250000000004,2.0,0.0,2.0,5.0,1.0,0.0,0.0,1.0,26.3,90.57146221763963,2.2820220355887875
"1,4-dimethyl 2-aminobenzene-1,4-dicarboxylate",COC(=O)c1ccc(c(N)c1)C(=O)OC,-3.7185037648,G1,0.8420000000000001,53.533400000000015,5.0,1.0,5.0,2.0,1.0,0.0,0.0,1.0,78.62,86.7811969331974,3.0826276535835366
8-ethylundecan-1-amine,CCCC(CC)CCCCCCCN,-3.6976259568,G1,4.112000000000003,65.44540000000006,1.0,1.0,1.0,10.0,0.0,0.0,0.0,0.0,26.02,90.4584470976016,3.1539823050073923
dodecanedioic acid,OC(=O)CCCCCCCCCCC(O)=O,-3.7602414897,G4,3.0566000000000013,61.44160000000005,2.0,2.0,4.0,11.0,0.0,0.0,0.0,0.0,74.6,96.66512599067184,2.9847083013580864
"4,4,8,8-tetramethyloctahydro-4a,7-methanonaphtho[1,8a-b]oxirene",CC1(C)CCC2OC23C(C)(C)C4CCC13C4,-4.6529288002,G1,3.7703000000000033,64.17400000000005,1.0,0.0,1.0,0.0,0.0,4.0,4.0,4.0,12.53,98.93866124477202,1.934409286311033
"1-[(9,9-dimethyldecyl)sulfanyl]propan-2-ol",CC(O)CSCCCCCCCCC(C)(C)C,-4.7309406924,G1,4.877200000000005,80.77980000000007,2.0,1.0,2.0,10.0,0.0,0.0,0.0,0.0,20.23,112.76578440694334,3.0401683284797585
dodecanoic acid,CCCCCCCCCCCC(O)=O,-4.6195835711,G2,3.991900000000002,59.47980000000005,1.0,1.0,2.0,10.0,0.0,0.0,0.0,0.0,37.3,87.70937013843205,2.884064614706359
"[2-butyl-4-chloro-1-({4-[2-(2H-1,2,3,4-tetrazol-5-yl)phenyl]phenyl}methyl)-1H-imidazol-5-yl]methanol",CCCCc1nc(Cl)c(CO)n1Cc2ccc(cc2)c3ccccc3c4n[nH]nn4,-4.9450169862,G1,4.266800000000004,115.9235,6.0,2.0,8.0,8.0,4.0,0.0,0.0,4.0,92.51,179.30208336077052,1.6211679783418802
lutetium oxide,[O--].[O--].[O--].[Lu+3].[Lu+3],-4.9185665359,G1,-0.3564,2.0595,0.0,0.0,5.0,0.0,0.0,0.0,0.0,0.0,85.5,88.4187869168143,-0.0
2-ethylhexyl 2-sulfanylacetate,CCCCC(CC)COC(=O)CS,-4.635481621399999,G1,2.675800000000001,58.118000000000045,3.0,1.0,3.0,7.0,0.0,0.0,0.0,0.0,26.3,86.45386405035137,3.522832498633061
"(1,1-dimethylpropyl)benzene",CCC(C)(C)c1ccccc1,-4.5007459195,G3,3.374200000000002,49.75900000000004,0.0,0.0,0.0,2.0,1.0,0.0,0.0,1.0,0.0,69.25611369148,2.9284445313943723
"2-methyl-4-(2,6,6-trimethylcyclohex-2-en-1-yl)butanal",CC(CCC=O)C1C(=CCCC1(C)C)C,-4.6532020914,G3,3.9841000000000033,64.72400000000005,1.0,0.0,1.0,4.0,0.0,0.0,1.0,1.0,17.07,93.94958642931572,2.740845336614066
"2,2-dimethyl-3-methylidenebicyclo[2.2.1]heptane",CC1(C)C2CCC(C2)C1=C,-4.4715404278,G3,2.9987000000000013,43.75200000000002,0.0,0.0,0.0,0.0,0.0,2.0,2.0,2.0,0.0,63.322464718156304,2.3367677527130697
2-[2-(4-methylcyclohex-3-en-1-yl)propyl]cyclopentan-1-one,CC(CC1CCCC1=O)C2CCC(=CC2)C,-4.6803670486,G1,4.128200000000004,67.22700000000005,1.0,0.0,1.0,3.0,0.0,1.0,2.0,2.0,17.07,99.3086973901831,1.8344181263922252
methyl decanoate,CCCCCCCCCC(=O)OC,-4.6267485225,G5,3.3001000000000023,54.62600000000005,2.0,0.0,2.0,8.0,0.0,0.0,0.0,0.0,26.3,81.66373950134629,2.951096443012517
dipraseodymium(3+) ion tricarbonate,[Pr+3].[Pr+3].[O-]C([O-])=O.[O-]C([O-])=O.[O-]C([O-])=O,-5.0220270242,G3,-7.341000000000001,16.188,9.0,0.0,11.0,0.0,0.0,0.0,0.0,0.0,189.57,143.6407251631794,-2.699999991e-08
"1,1,3,3-tetrabutylurea",CCCCN(CCCC)C(=O)N(CCCC)CCCC,-4.8205954965,G1,4.910800000000005,88.17400000000008,1.0,0.0,3.0,12.0,0.0,0.0,0.0,0.0,23.550000000000004,126.2595142986258,4.539321073402677
Cedryl methyl ether,CO[C@]1(C)CCC23C[C@@H]1C(C)(C)[C@@H]2CC[C@H]3C,-4.7401771795,G1,4.263900000000004,70.85700000000006,1.0,0.0,1.0,1.0,0.0,3.0,3.0,3.0,9.23,106.30943451269783,2.0431028875845927
cyclododecyl methyl ether,COC1CCCCCCCCCCC1,-4.6835903829,G1,4.306100000000004,61.58400000000006,1.0,0.0,1.0,1.0,0.0,1.0,1.0,1.0,9.23,89.22627047656653,2.166172108107462
"2-ethoxy-2,6,6-trimethyl-9-methylidenebicyclo[3.3.1]nonane",CCOC1(C)CCC2C(=C)C1CCC2(C)C,-4.7342962454,G1,4.184000000000004,68.40000000000005,1.0,0.0,1.0,2.0,0.0,2.0,2.0,2.0,9.23,100.2607205196462,2.2262834953579964
"N,N-diethyl[(diethylcarbamothioyl)disulfanyl]carbothioamide",CCN(CC)C(=S)SSC(=S)N(CC)CC,-4.8603775493,G2,3.621200000000002,86.22000000000004,4.0,0.0,6.0,4.0,0.0,0.0,0.0,0.0,6.48,117.90714002929566,4.041784405967148
"6-amino-2-(2,4-dimethylphenyl)-1H-benzo[de]isoquinoline-1,3(2H)-dione",Cc1ccc(N2C(=O)c3cccc4c(N)ccc(C2=O)c34)c(C)c1,-4.8916555333,G1,3.8394400000000015,95.41640000000004,3.0,1.0,4.0,1.0,3.0,0.0,1.0,4.0,63.4,139.046867728657,2.005101312004899
"(4-tert-butyl-2,6-dimethylphenyl)acetonitrile",Cc1cc(cc(C)c1CC#N)C(C)(C)C,-4.7018118295,G1,3.6670200000000026,63.93300000000004,1.0,0.0,1.0,1.0,1.0,0.0,0.0,1.0,23.79,92.74351971613856,3.2692304702845068
Naphthalimide,O=C1NC(=O)c2cccc3cccc1c23,-4.6928315029,G1,1.7234,55.74470000000002,2.0,1.0,3.0,0.0,2.0,0.0,1.0,3.0,46.17,85.71002711019172,2.5596903090526832
dibutylstannanone,CCCC[Sn](=O)CCCC,-4.7940381830000005,G3,3.0086000000000013,45.87050000000002,1.0,0.0,2.0,6.0,0.0,0.0,0.0,0.0,17.07,71.3240335475123,3.0863484262353005
dibutyltin bis(2-ethylhexanoate),CCCC[Sn++]CCCC.CCCCC(CC)C([O-])=O.CCCCC(CC)C([O-])=O,-5.1134043257,G2,5.032800000000004,121.81000000000012,4.0,0.0,5.0,16.0,0.0,0.0,0.0,0.0,80.25999999999999,191.4010957449647,-3.503157850291247e-07
octahydro-2H-1-benzopyran-2-one,O=C1CCC2CCCCC2O1,-0.5865603256,G1,1.8822,41.07200000000001,2.0,0.0,2.0,0.0,0.0,2.0,2.0,2.0,26.3,66.92219296549462,1.982567998411652
methyl 4-methylbenzoate,COC(=O)c1ccc(C)cc1,-2.5767203524,G5,1.78162,42.51850000000002,2.0,0.0,2.0,1.0,1.0,0.0,0.0,1.0,26.3,65.80129679223742,2.8953480359887567
"2-benzyl-4,4,6-trimethyl-1,3-dioxane",CC1CC(C)(C)OC(Cc2ccccc2)O1,-2.7446854432,G1,3.159200000000002,64.26200000000004,2.0,0.0,2.0,2.0,1.0,1.0,1.0,2.0,18.46,97.57219934015436,1.9992235714261768
"benzene-1,2-diamine",Nc1ccccc1N,-0.4396098786999999,G5,0.851,35.2668,2.0,2.0,2.0,0.0,1.0,0.0,0.0,1.0,52.04,48.11118451352239,3.134861511345448
"1,2-benzisothiazol-3(2H)-one 1,1-dioxide",O=C1N[S](=O)(=O)c2ccccc12,-1.6718324141,G5,0.1186999999999999,41.094000000000015,3.0,1.0,5.0,0.0,1.0,0.0,1.0,2.0,63.24,69.26267425643123,2.828397697128564
sodium 4-amino-3-methylbenzene-1-sulfonate,[Na+].Cc1cc(ccc1N)[S]([O-])(=O)=O,-1.7295012251,G1,-2.5146799999999985,43.554600000000015,4.0,1.0,6.0,1.0,1.0,0.0,0.0,1.0,83.22,99.17827156365884,1.4399996808000729e-06
"3,7-dimethyloctanenitrile",CC(C)CCCC(C)CC#N,-3.5877591379,G1,3.3624800000000024,48.08300000000003,1.0,0.0,1.0,5.0,0.0,0.0,0.0,0.0,23.79,70.41630973886774,3.183499102135699
calcium molybdate,[Ca++].[O-][Mo]([O-])(=O)=O,-3.7036943449,G3,-2.9989,7.126999999999999,4.0,0.0,6.0,0.0,0.0,0.0,0.0,0.0,80.25999999999999,67.88673505608293,0.0
1-[3-(2-oxoazepane-1-carbonyl)benzoyl]azepan-2-one,O=C1CCCCCN1C(=O)c2cccc(c2)C(=O)N3CCCCCC3=O,-3.9583461947,G1,2.7722000000000016,95.46500000000006,4.0,0.0,6.0,2.0,1.0,2.0,2.0,3.0,74.76,152.69468615457285,1.8053231337768807
"6,10-dimethylundeca-5,9-dien-2-one",CC(C)=CCC\C(C)=C\CCC(C)=O,-3.6974484249,G3,4.048300000000003,62.337000000000046,1.0,0.0,1.0,6.0,0.0,0.0,0.0,0.0,17.07,87.90087243626411,3.670448527133007
prop-2-en-1-yl hexanoate,CCCCCC(=O)OCC=C,-2.6105517594,G5,2.2959000000000005,45.298000000000016,2.0,0.0,2.0,6.0,0.0,0.0,0.0,0.0,26.3,68.2442522403688,3.151008352942726
"sodium 2-amino-4,6-dinitrophenolate",[Na+].Nc1cc(cc(c1[O-])[N+]([O-])=O)[N+]([O-])=O,-1.7648130029,G1,-2.8371999999999997,43.6092,6.0,1.0,9.0,2.0,1.0,0.0,0.0,1.0,135.36,105.28487863641725,1.9599994213335105e-06
4-chloro-1-(4-fluorophenyl)butan-1-one,Fc1ccc(cc1)C(=O)CCCCl,-2.7226339225,G1,3.027400000000002,50.68450000000002,1.0,0.0,3.0,4.0,1.0,0.0,0.0,1.0,17.07,81.52149530693507,2.611171250638133
tri(propan-2-yl)silyl prop-2-enoate,CC(C)[Si](OC(=O)C=C)(C(C)C)C(C)C,-4.9437379631,G1,3.8911000000000033,67.33700000000005,2.0,0.0,3.0,5.0,0.0,0.0,0.0,0.0,26.3,94.84339435784396,5.132522351816899
diisopropyl succinate,CC(C)OC(=O)CCC(=O)OC(C)C,-1.7293168462,G1,1.6698,51.69000000000004,4.0,0.0,4.0,5.0,0.0,0.0,0.0,0.0,52.60000000000001,84.57386471650031,3.613952245988637
strontium(2+) ion 3-hydroxy-4-[(E)-2-(4-methyl-2-sulfonatophenyl)diazen-1-yl]naphthalene-2-carboxylate,[Sr++].Cc1ccc(N\N=C\2C(=O)C(=Cc3ccccc23)C([O-])=O)c(c1)[S]([O-])(=O)=O,-4.1057301532,G1,0.0505199999999999,99.48890000000002,8.0,1.0,10.0,4.0,2.0,0.0,1.0,3.0,138.79,197.5319462630467,2.8033304522669224e-06
"8-[(4-aminophenyl)diazenyl]-7-hydroxy-N,N,N-trimethylnaphthalen-2-aminium chloride",[Cl-].C[N+](C)(C)c1ccc2ccc(O)c(N=Nc3ccc(N)cc3)c2c1,-1.9807853884,G1,1.7437000000000007,100.20920000000002,4.0,2.0,6.0,3.0,3.0,0.0,0.0,3.0,70.97,152.96878890353193,2.2533314616238387e-06
trifluoroacetamide,NC(=O)C(F)(F)F,-1.4850227408,G1,0.0340000000000001,15.2494,1.0,1.0,5.0,0.0,0.0,0.0,0.0,0.0,43.09,37.10221214806134,3.7911184170869663
4-(2-methylbutan-2-yl)cyclohexan-1-one,CCC(C)(C)C1CCC(=O)CC1,-2.6568927779,G1,3.181900000000001,51.03700000000004,1.0,0.0,1.0,2.0,0.0,1.0,1.0,1.0,17.07,75.54436311831017,2.4883693892245677
4-methanesulfonyl-1-methyl-2-nitrobenzene,Cc1ccc(cc1[N+]([O-])=O)[S](C)(=O)=O,-2.7647010816,G1,1.30672,50.943200000000026,4.0,0.0,6.0,2.0,1.0,0.0,0.0,1.0,77.28,81.43966145257656,3.4165333761642867
methyl non-2-ynoate,CCCCCCC#CC(=O)OC,-3.6518876662,G1,2.1332000000000004,48.55100000000003,2.0,0.0,2.0,4.0,0.0,0.0,0.0,0.0,26.3,74.29802277880893,3.2689731533358644
decan-1-ol,CCCCCCCCCCO,-3.6312380365,G5,3.119400000000002,49.69580000000003,1.0,1.0,1.0,8.0,0.0,0.0,0.0,0.0,20.23,70.81796380959506,2.6909155266923976
triphenylphosphine oxide,O=[P](c1ccccc1)(c2ccccc2)c3ccccc3,-2.8774727952,G1,3.3260000000000014,85.83450000000005,1.0,0.0,2.0,3.0,3.0,0.0,0.0,3.0,17.07,118.83519143171844,2.272149038700854
"2-chloro-1,4-dimethoxybenzene",COc1ccc(OC)c(Cl)c1,-2.6724024043,G1,2.3572,44.55600000000002,2.0,0.0,3.0,2.0,1.0,0.0,0.0,1.0,18.46,70.69164403418561,2.992962951841593
2-(2-naphthyloxy)ethanol,OCCOc1ccc2ccccc2c1,-2.7142946902,G1,2.2109,56.52880000000003,2.0,1.0,2.0,3.0,2.0,0.0,0.0,2.0,29.46,82.75073086172829,2.3152099416715277
butoxybenzene,CCCCOc1ccccc1,-3.6132495633,G1,2.8655000000000017,46.845000000000034,1.0,0.0,1.0,4.0,1.0,0.0,0.0,1.0,9.23,68.00471680659028,2.2758012873675093
2-[2-(benzoyloxy)ethoxy]ethyl benzoate,O=C(OCCOCCOC(=O)c1ccccc1)c2ccccc2,-3.937488879,G5,2.7170000000000005,84.26800000000004,5.0,0.0,5.0,8.0,2.0,0.0,0.0,2.0,61.830000000000005,134.34182990054887,1.529201718235942
"(Z)-N-9-octadecenylpropane-1,3-diamine",CCCCCCCC\C=C/CCCCCCCCNCCCN,-3.9550420009,G1,5.962300000000004,105.99310000000008,2.0,2.0,2.0,19.0,0.0,0.0,0.0,0.0,38.05,146.23824316419825,3.0230693397579023
"1,2,4-trichlorobenzene",Clc1ccc(Cl)c(Cl)c1,-3.7024520783,G5,3.6468000000000007,41.47200000000001,0.0,0.0,3.0,0.0,1.0,0.0,0.0,1.0,0.0,68.34120180014197,3.171678030440916
"[3-methyl-4-(2,2,2-trifluoroethoxy)pyridin-2-yl]methanol",Cc1c(CO)nccc1OCC(F)(F)F,-1.7920737105000002,G1,1.82342,46.44680000000002,3.0,1.0,6.0,3.0,1.0,0.0,0.0,1.0,42.35000000000001,84.51520474851151,2.7753164010557625
methoxymethane,COC,0.8843659201,G3,0.2626,12.933000000000002,1.0,0.0,1.0,0.0,0.0,0.0,0.0,0.0,9.23,20.21773837173304,1.6329931618554523
"(2E)-3-(3,4,5-trimethoxyphenyl)prop-2-enoic acid",COc1cc(\C=C\C(O)=O)cc(OC)c1OC,-2.830470194,G1,1.8102,62.76780000000003,4.0,1.0,5.0,5.0,1.0,0.0,0.0,1.0,64.99000000000001,99.22784431445278,3.2179156762590817
barium(2+) ion diphosphinate,[Ba++].[O-]P=O.[O-]P=O,0.1236633717,G1,-1.274,20.967,4.0,0.0,7.0,0.0,0.0,0.0,0.0,0.0,80.25999999999999,83.95770812813484,-3.9999999812500013e-08
"1,4-dibromobutane",BrCCCCBr,-2.7902167817000003,G1,2.556400000000001,36.822,0.0,0.0,2.0,3.0,0.0,0.0,0.0,0.0,0.0,55.569172582302095,2.3390923149762908
"1,2,3,4-tetrahydronaphthalene",C1CCc2ccccc2C1,-3.5673681389,G5,2.5654000000000003,43.08400000000002,0.0,0.0,0.0,0.0,1.0,0.0,1.0,2.0,0.0,61.88534042355416,2.414292094177304
"1,6-dibutyl hexanedioate",CCCCOC(=O)CCCCC(=O)OCCCC,-3.8681538696,G1,3.2334000000000023,70.20200000000006,4.0,0.0,4.0,11.0,0.0,0.0,0.0,0.0,52.60000000000001,110.03363317408676,3.3233194240262938
"ethyl phenyl(2,4,6-trimethylbenzoyl)phosphinate",CCO[P](=O)(C(=O)c1c(C)cc(C)cc1C)c2ccccc2,-3.9560819473,G1,4.392160000000003,90.29200000000004,3.0,0.0,4.0,5.0,2.0,0.0,0.0,2.0,43.370000000000005,131.32948749971192,2.6010201085760345
2-tert-butyl-5-methylphenol,Cc1ccc(c(O)c1)C(C)(C)C,-2.672674663,G1,2.998120000000001,51.54380000000004,1.0,1.0,1.0,0.0,1.0,0.0,0.0,1.0,20.23,74.050347443676,3.189211511901671
dimethyl 2-nitroterephthalate,COC(=O)c1ccc(C(=O)OC)c(c1)[N+]([O-])=O,-2.8359048818,G1,1.168,55.77540000000001,6.0,0.0,7.0,3.0,1.0,0.0,0.0,1.0,95.74,96.09428195868448,3.3153231565482364
Cobaltous acetate,[Co++].CC([O-])=O.CC([O-])=O,0.2936043702,G3,-2.490099999999999,21.36199999999999,4.0,0.0,5.0,0.0,0.0,0.0,0.0,0.0,80.25999999999999,63.0714537104907,-7.199999951999999e-08
6-(prop-2-enoyloxy)hexyl prop-2-enoate,C=CC(=O)OCCCCCCOC(=O)C=C,-2.8193366955,G3,2.0052,60.78000000000004,4.0,0.0,4.0,9.0,0.0,0.0,0.0,0.0,52.6,95.92454288092505,3.1530770852631704
"N,N-dimethyldecanamide",CCCCCCCCCC(=O)N(C)C,-2.7681111795,G1,3.215300000000002,61.30400000000005,1.0,0.0,2.0,8.0,0.0,0.0,0.0,0.0,20.31,88.67497005643939,3.0958455805317366
4-[(E)-2-phenyldiazen-1-yl]aniline,Nc1ccc(cc1)N=Nc2ccccc2,-3.7597030757,G5,3.6842000000000015,61.47240000000003,3.0,1.0,3.0,2.0,2.0,0.0,0.0,2.0,50.74,88.2751658670628,2.1529892819390977
"(2,2,3-trimethylcyclopent-3-en-1-yl)acetonitrile",CC1=CCC(CC#N)C1(C)C,-2.6475372328,G1,2.8924800000000017,45.87500000000003,1.0,0.0,1.0,1.0,0.0,0.0,1.0,1.0,23.79,68.72087555315426,2.71540649332552
2-tert-butyl-4-methylphenol,Cc1ccc(O)c(c1)C(C)(C)C,-2.6917536232,G1,2.998120000000001,51.54380000000004,1.0,1.0,1.0,0.0,1.0,0.0,0.0,1.0,20.23,74.050347443676,3.231425013090014
"N,N,N-trimethylanilinium chloride",[Cl-].C[N+](C)(C)c1ccccc1,0.2877472964999999,G1,-1.1126999999999976,46.00800000000004,0.0,0.0,2.0,1.0,1.0,0.0,0.0,1.0,0.0,74.64912787203491,9.99999827000031e-07
"1,3,3-trimethyl-2-oxabicyclo[2.2.2]octane 2-(4-methylcyclohex-3-en-1-yl)propan-2-yl acetate",CC(=O)OC(C)(C)C1CCC(=CC1)C.CC23CCC(CC2)C(C)(C)O3,-3.0213590642000003,G1,5.818600000000007,102.47000000000008,3.0,0.0,3.0,2.0,0.0,3.0,4.0,4.0,35.53,154.09038264997315,1.8458873953382265e-07
"tris(prop-2-en-1-yloxy)-1,3,5-triazine",C=CCOc1nc(OCC=C)nc(OCC=C)n1,-2.8742257802,G4,1.5659999999999998,66.90300000000002,6.0,0.0,6.0,9.0,1.0,0.0,0.0,1.0,66.36,105.64665268387382,2.829276282059777
valeric acid,CCCCC(O)=O,-0.490652149,G5,1.2612,27.160799999999988,1.0,1.0,2.0,3.0,0.0,0.0,0.0,0.0,37.3,43.15477533765576,2.8219389370591843
3-methyl-4-phenylbutan-2-ol,CC(O)C(C)Cc1ccccc1,-1.6969729899,G1,2.2460000000000004,50.99080000000004,1.0,1.0,1.0,3.0,1.0,0.0,0.0,1.0,20.23,74.05034744367602,2.52667600839138
"1,3-diethyl 2-butylpropanedioate",CCCCC(C(=O)OCC)C(=O)OCC,-2.8164963969,G1,1.919,56.28100000000004,4.0,0.0,4.0,7.0,0.0,0.0,0.0,0.0,52.60000000000001,90.93880683089694,4.278065309404908
"2-(2-undecyl-4,5-dihydro-1H-imidazol-1-yl)ethanol",CCCCCCCCCCCC1=NCCN1CCO,-3.8986556211,G1,3.613700000000003,82.80480000000006,3.0,1.0,3.0,12.0,0.0,0.0,1.0,1.0,35.83,118.65694149850898,1.9026512205593904
1-chloro-4-(trifluoromethyl)benzene,FC(F)(F)c1ccc(Cl)cc1,-3.7276952246,G1,3.3588000000000013,36.454000000000015,0.0,0.0,4.0,0.0,1.0,0.0,0.0,1.0,0.0,66.59621766955395,2.993754788259927