Name,SMILES,Solubility,Group,MolLogP,MolMR,NumHAcceptors,NumHDonors,NumHeteroatoms,NumRotatableBonds,NumAromaticRings,NumSaturatedRings,NumAliphaticRings,RingCount,TPSA,LabuteASA,BalabanJ
3-[ethyl[4-[(4-nitrophenyl)azo]phenyl]amino]propiononitrile,CCN(CCC#N)c1ccc(cc1)N=Nc2ccc(cc2)[N+]([O-])=O,-7.208650928200001,G1,4.750180000000004,91.83140000000006,6.0,0.0,7.0,7.0,2.0,0.0,0.0,2.0,94.89,139.56537481620504,2.048173162326947
ammonium iron(3+) hexakis(cyano-C)ferrate(4-),[NH4+].[Fe++].[Fe+3].[C-]#N.[C-]#N.[C-]#N.[C-]#N.[C-]#N.[C-]#N,-7.155088449400001,G1,0.9494199999999996,35.79279999999999,6.0,1.0,9.0,0.0,0.0,0.0,0.0,0.0,179.23999999999998,111.27558636465912,-3.956043955029585e-09
"Methyl 3-[n-ethyl-4-[(5-nitro-2,1-benzothiazol-3-yl)azo]anilino]propanoate",CCN(CCC(=O)OC)c1ccc(cc1)N=Nc2snc3ccc(cc23)[N+]([O-])=O,-7.315402454199999,G1,5.009300000000004,111.41240000000003,9.0,0.0,10.0,8.0,3.0,0.0,0.0,3.0,110.29000000000002,170.49557035072218,1.7440688696052005
tetradecyl tetradecanoate,CCCCCCCCCCCCCCOC(=O)CCCCCCCCCCCCC,-7.3271074817,G1,9.931799999999996,133.11500000000007,2.0,0.0,2.0,25.0,0.0,0.0,0.0,0.0,26.3,189.8677554460887,3.1342843571742227
"trans-4-ethyl-4'-(4-propylcyclohexyl)-1,1'-biphenyl",CCCC1CCC(CC1)c2ccc(cc2)c3ccc(CC)cc3,-7.1853905644000005,G1,6.989900000000008,100.86300000000006,0.0,0.0,0.0,5.0,2.0,1.0,1.0,3.0,0.0,141.49702943039446,1.6484675234806
trixylyl phosphate,Cc1cc(C)cc(O[P](=O)(Oc2cc(C)cc(C)c2)Oc3cc(C)cc(C)c3)c1,-7.312230264299999,G1,7.182020000000006,117.23850000000004,4.0,0.0,5.0,6.0,3.0,0.0,0.0,3.0,44.760000000000005,172.6254905810004,1.9956292279713272
"beta,beta-carotene",CC1=C(\C=C\C(C)=C\C=C\C(C)=C\C=C\C=C(C)\C=C\C=C(C)\C=C\C2=C(C)CCCC2(C)C)C(C)(C)CCC1,-7.553792438099999,G1,12.605799999999975,181.3919999999994,0.0,0.0,0.0,10.0,0.0,0.0,2.0,2.0,0.0,247.374697828212,1.885637979049954
hafnium,[Hf],-7.1724326435000005,G1,-0.0025,0.0,0.0,0.0,1.0,0.0,0.0,0.0,0.0,0.0,0.0,26.276582547519773,0.0
hafnium dioxide,[O--].[O--].[Hf+4],-7.2440460955,G1,-0.2401,1.373,0.0,0.0,3.0,0.0,0.0,0.0,0.0,0.0,57.0,37.23808940434852,-0.0
"(2R)-5-amino-2-(dibenzylamino)-1,6-diphenylhex-4-en-3-one",NC(Cc1ccccc1)=CC(=O)[C@@H](Cc2ccccc2)N(Cc3ccccc3)Cc4ccccc4,-7.6633437338,G1,5.954500000000007,143.4883999999998,3.0,1.0,3.0,11.0,4.0,0.0,0.0,4.0,46.330000000000005,208.09386608793747,1.6457267398328672
(Z)-N-octadec-9-enylhexadecan-1-amide,CCCCCCCCCCCCCCCC(=O)NCCCCCCCC\C=C/CCCCCCCC,-7.7040784145,G1,11.621399999999984,162.77369999999968,1.0,1.0,2.0,30.0,0.0,0.0,0.0,0.0,29.1,227.8041220543853,3.184849166020061
"3-(3,5-di-tert-butyl-4-hydroxyphenyl)-N-octadecylpropanamide",CCCCCCCCCCCCCCCCCCNC(=O)CCc1cc(c(O)c(c1)C(C)(C)C)C(C)(C)C,-7.724189002,G1,10.297499999999994,166.38349999999966,2.0,2.0,3.0,20.0,1.0,0.0,0.0,1.0,49.33,236.52034247284652,2.131331311862653
4-chloro-2-(2-chlorobenzoyl)aniline,Nc1ccc(Cl)cc1C(=O)c2ccccc2Cl,-7.4250889383,G1,3.806600000000001,70.74890000000002,2.0,1.0,4.0,2.0,2.0,0.0,0.0,2.0,43.09,108.96138469077744,2.5131320514212643
N-octadecyloctadecanamide,CCCCCCCCCCCCCCCCCCNC(=O)CCCCCCCCCCCCCCCCC,-7.729153446000001,G3,12.62559999999998,172.1016999999996,1.0,1.0,2.0,33.0,0.0,0.0,0.0,0.0,29.1,241.22360931536275,3.1372046616517357
aluminium(3+) ion borate,[Al+3].[O-]B([O-])[O-],-6.9334417301,G1,-4.3286,11.508,3.0,0.0,5.0,0.0,0.0,0.0,0.0,0.0,69.17999999999999,40.55803027288261,0.0
nitriloborane,B#N,-6.394784279,G1,-0.36572,7.478999999999999,1.0,0.0,2.0,0.0,0.0,0.0,0.0,0.0,23.79,13.910622059767006,3.0
4-(2-phenylpropan-2-yl)-N-[4-(2-phenylpropan-2-yl)phenyl]aniline,CC(C)(c1ccccc1)c2ccc(Nc3ccc(cc3)C(C)(C)c4ccccc4)cc2,-7.782007082100001,G1,8.082000000000008,133.30669999999995,1.0,1.0,1.0,6.0,4.0,0.0,0.0,4.0,12.03,186.34220060767672,1.48867566235866
"2-[7-(diethylamino)-2-oxo-2H-chromen-3-yl]-1,3-benzoxazole-5-sulfonamide",CCN(CC)c1ccc2C=C(C(=O)Oc2c1)c3oc4ccc(cc4n3)[S](N)(=O)=O,-7.8310984133,G1,3.0948,110.42120000000004,7.0,1.0,9.0,5.0,4.0,0.0,0.0,4.0,119.64,166.15241127532522,1.8205002316850547
Indanthrene,O=C1c2ccccc2C(=O)c3c4Nc5ccc6C(=O)c7ccccc7C(=O)c6c5Nc4ccc13,-7.946874563300001,G1,4.140600000000002,136.44539999999995,4.0,2.0,6.0,0.0,7.0,0.0,0.0,7.0,99.86,188.60677467197624,1.7231672910963136
"titanium(4+) ion bis(2,6-difluoro-3-(1H-pyrrol-1-yl)benzen-1-ide) bis(cyclopenta-2,4-dien-1-ide)",[Ti+4].Fc1ccc(N2C=C[C-]=C2)c(F)c1.Fc3ccc(N4C=C[C-]=C4)c(F)c3.[cH-]5cccc5.[cH-]6cccc6,-8.1257893916,G1,7.919880000000006,133.1119999999999,2.0,0.0,7.0,2.0,6.0,0.0,0.0,6.0,9.86,228.21993153198648,1.8736110942772e-07
"3-(1,3-benzothiazol-2-yl)-7-(diethylamino)-2-oxo-2H-chromene-4-carbonitrile",CCN(CC)c1ccc2c(OC(=O)C(=C2C#N)c3sc4ccccc4n3)c1,-8.0974343241,G1,4.787580000000004,109.374,6.0,0.0,6.0,4.0,4.0,0.0,0.0,4.0,70.13,159.6553004880973,1.9660880219539816
4-(2-{4-[2-(3-cyanophenyl)ethenyl]phenyl}ethenyl)benzonitrile,N#Cc1ccc(C=Cc2ccc(cc2)C=Cc3cccc(c3)C#N)cc1,-8.123728845599999,G1,5.7707600000000046,106.612,2.0,0.0,2.0,4.0,3.0,0.0,0.0,3.0,47.58,153.14119751657358,1.675444737646766
tris(2-ethylhexyl) phosphate,CCCCC(CC)CO[P](=O)(OCC(CC)CCCC)OCC(CC)CCCC,-8.85998044,G4,8.793500000000003,125.38050000000013,4.0,0.0,5.0,21.0,0.0,0.0,0.0,0.0,44.760000000000005,182.02316602194728,4.909010055557296
"2-(diphenyl-1,3,5-triazin-2-yl)-5-(hexyloxy)phenol",CCCCCCOc1ccc(c(O)c1)c2nc(nc(n2)c3ccccc3)c4ccccc4,-9.1518109699,G1,6.537300000000006,127.43679999999998,5.0,1.0,5.0,9.0,4.0,0.0,0.0,4.0,68.13,188.359061348611,1.6641558683524005
"1,2-bis(2-propylheptyl) benzene-1,2-dicarboxylate",CCCCCC(CCC)COC(=O)c1ccccc1C(=O)OCC(CCC)CCCCC,-9.6499887292,G1,7.993400000000009,132.08700000000005,4.0,0.0,4.0,18.0,1.0,0.0,0.0,1.0,52.60000000000001,196.0102642953237,2.6956592410132934
"2,2-dichloro-1-(3-methyl-2,3-dihydro-1,4-benzoxazin-4-yl)ethanone",CC1COc2ccccc2N1C(=O)C(Cl)Cl,-3.8353901487,G3,2.6042000000000005,64.37900000000003,2.0,0.0,5.0,1.0,1.0,0.0,1.0,2.0,29.54,103.89171599146812,2.404984323080204
(4-fluorophenyl)(piperidin-4-yl)methanone hydrochloride,[H+].[Cl-].Fc1ccc(cc1)C(=O)C2CCNCC2,0.5890195686999999,G1,-0.8754999999999997,57.43620000000003,2.0,1.0,4.0,2.0,1.0,1.0,1.0,2.0,29.1,102.13003596097036,1.2799997289000598e-06
"1,3-dihydroxypropan-2-one",OCC(=O)CO,1.0138642136,G1,-1.4599000000000002,19.1786,3.0,2.0,3.0,2.0,0.0,0.0,0.0,0.0,57.53,35.21912486105855,2.9881608821342693
trimethyl(oxiran-2-ylmethyl)azanium chloride,[Cl-].C[N+](C)(C)CC1CO1,0.749634411,G1,-2.904599999999996,32.63939999999998,1.0,0.0,3.0,2.0,0.0,1.0,1.0,1.0,12.53,62.79457408513834,6.399999024000152e-07
4-(propan-2-yl)benzene-1-sulfonic acid,CC(C)c1ccc(cc1)[S](O)(=O)=O,0.6127511139,G1,2.0567,50.345600000000026,2.0,1.0,4.0,2.0,1.0,0.0,0.0,1.0,54.37,78.15486547272738,3.083559884053619
4-aminobenzonitrile,Nc1ccc(cc1)C#N,-1.1429743647,G3,1.1404800000000002,35.569400000000016,2.0,1.0,2.0,0.0,1.0,0.0,0.0,1.0,49.81,53.528815612375,3.05603839622726
potassium 2-sulfanylacetate,[K+].[O-]C(=O)CS,0.7806710209000001,G1,-4.329899999999999,18.86,3.0,1.0,4.0,1.0,0.0,0.0,0.0,0.0,40.13,84.13758035323022,0.0
sodium 2-hydroxy-3-(prop-2-en-1-yloxy)propane-1-sulfonate,[Na+].OC(COCC=C)C[S]([O-])(=O)=O,0.5538399496,G1,-3.900899999999997,41.58700000000002,5.0,1.0,7.0,6.0,0.0,0.0,0.0,0.0,86.66,99.82417318208375,0.0
2-(carboxyoxy)ethyl hydrogen carbonate,O=C1OCCO1,0.9461910524,G3,0.1532,17.299999999999997,3.0,0.0,3.0,0.0,0.0,1.0,1.0,1.0,35.53,34.85191666215107,2.3673518510178746
2-methylidenebutanedioic acid,OC(=O)CC(=C)C(O)=O,-0.2250282975,G3,0.1019,29.02859999999999,2.0,2.0,4.0,3.0,0.0,0.0,0.0,0.0,74.6,51.42092815771127,3.788427600543414
(2S)-2-amino-5-carbamimidamidopentanoic acid hydrochloride,[Cl-].N[C@@H](CCCN=C(N)N)C(O)=O.[H+],0.5397304724,G1,-4.431599999999998,46.634,3.0,4.0,7.0,5.0,0.0,0.0,0.0,0.0,127.72,84.07260365099557,-6.0499989110002e-07
sodium 3-[[4-(benzoylethylamino)-2-methylphenyl]azo]-4-hydroxynaphthalene-1-sulphonate,[Na+].CC(Nc1ccc(N\N=C\2C=C(c3ccccc3C2=O)[S]([O-])(=O)=O)c(C)c1)C(=O)c4ccccc4,-1.8129006218,G1,1.2328200000000005,134.54059999999993,8.0,2.0,10.0,7.0,3.0,0.0,1.0,4.0,127.76,231.0999569672357,3.609992973497518e-06
2-(chloromethyl)oxirane,ClCC1CO1,-0.1473736792,G1,0.624,20.459999999999997,1.0,0.0,2.0,1.0,0.0,1.0,1.0,1.0,12.53,35.88011555948209,1.9989394851788975
trisodium 2-[bis(carboxylatomethyl)amino]acetate,[Na+].[Na+].[Na+].[O-]C(=O)CN(CC([O-])=O)CC([O-])=O,0.3961032361,G3,-14.449900000000005,31.46099999999999,7.0,0.0,10.0,6.0,0.0,0.0,0.0,0.0,123.63,158.43126169487115,-2.3999997095000365e-07
"sodium 2,4-diamino-5-[(E)-2-(2-hydroxy-5-nitrophenyl)diazen-1-yl]benzene-1-sulfonate",[Na+].Nc1cc(N)c(cc1N=Nc2cc(ccc2O)[N+]([O-])=O)[S]([O-])(=O)=O,-0.7639420940999999,G1,-1.2116999999999991,82.1672,10.0,3.0,13.0,4.0,2.0,0.0,0.0,2.0,197.33,163.10430167152396,3.124997327085682e-06
di(phenyl)methanimine,N=C(c1ccccc1)c2ccccc2,-2.7811280063,G1,3.1027700000000014,58.81470000000003,1.0,1.0,1.0,2.0,2.0,0.0,0.0,2.0,23.85,83.53879043922241,2.348637604509715
sodium 2-sulfanylacetate,[Na+].[O-]C(=O)CS,0.7273991488,G1,-4.329899999999999,18.86,3.0,1.0,4.0,1.0,0.0,0.0,0.0,0.0,40.13,63.6284152805796,0.0
"potassium 3,5,5-trimethylhexanoate",[K+].CC(CC([O-])=O)CC(C)(C)C,0.4851623717,G1,-1.7972999999999977,42.860000000000014,2.0,0.0,3.0,3.0,0.0,0.0,0.0,0.0,40.13,117.53710849060478,0.0
3-(morpholin-4-yl)propane-1-sulfonic acid,[O-][S](=O)(=O)CCC[NH+]1CCOCC1,0.4557825074,G1,-2.163199999999996,45.563900000000025,4.0,1.0,6.0,4.0,0.0,1.0,1.0,1.0,70.86999999999999,78.42508747043082,2.112006563790775
lithium(1+) ion chloride,[Li+].[Cl-],1.1343979721,G3,-5.992,0.0,0.0,0.0,2.0,0.0,0.0,0.0,0.0,0.0,0.0,31.81913653838555,0.0
2-piperidin-2-ylethanol,OCC[C@@H]1CCCC[NH2+]1,0.6427483546,G1,-0.5152999999999992,36.13419999999999,1.0,2.0,2.0,2.0,0.0,1.0,1.0,1.0,36.84,56.267168496484025,2.077860755461056
"2-amino-2-(hydroxymethyl)propane-1,3-diol hydrochloride",[H+].[Cl-].NC(CO)(CO)CO,0.5514149152000001,G1,-5.222699999999997,29.287799999999997,4.0,4.0,5.0,3.0,0.0,0.0,0.0,0.0,86.71000000000001,61.19456094666506,-2.4499998250000135e-07
2-methylpropyl (2R)-2-hydroxypropanoate,CC(C)COC(=O)[C@@H](C)O,-0.4128573351,G3,0.5664,37.4778,3.0,1.0,3.0,3.0,0.0,0.0,0.0,0.0,46.53,60.99820479595584,3.4037533061532064
calcium 2-sulfanidylacetate,[Ca++].[O-]C(=O)CS,-0.3838981351,G1,-1.7147,24.614,3.0,1.0,4.0,1.0,0.0,0.0,0.0,0.0,40.13,71.33078365309184,0.0
"3-(aminomethyl)-3,5,5-trimethylcyclohexan-1-ol",CC1(C)CC(O)CC(C)(CN)C1,0.488999371,G1,1.5224,50.800200000000025,2.0,2.0,2.0,1.0,0.0,1.0,1.0,1.0,46.25,75.1520233530785,2.6956765704316275
sodium 2-methylprop-2-ene-1-sulfonate,[Na+].CC(=C)C[S]([O-])(=O)=O,0.5194215084,G1,-2.8882999999999983,29.37819999999999,3.0,0.0,5.0,2.0,0.0,0.0,0.0,0.0,57.2,77.18650997158768,0.0
dipotassium O-[(sulfonatoperoxy)sulfonyl]oxidanidolate,[K+].[K+].[O-][S](=O)(=O)OO[S]([O-])(=O)=O,-0.6537301416,G1,-8.136999999999999,21.5644,8.0,0.0,12.0,3.0,0.0,0.0,0.0,0.0,132.86,154.05110385110748,-4.0499995882500426e-07
(2S)-2-hydroxy-3-(phenylamino)propane-1-sulfonate,O[C@@H](CNc1ccccc1)C[S]([O-])(=O)=O,0.1187844902,G1,0.0045999999999999,55.50270000000003,5.0,2.0,6.0,5.0,1.0,0.0,0.0,1.0,89.45999999999998,88.49896140853144,2.3813747338540936
"2-[2-[4-[(2-cyanoethyl)methylamino]phenyl]vinyl]-1,3,3-trimethyl-3H-indolium dihydrogen phosphate",CN(CCC#N)c1ccc(cc1)C=CC2=[N+](C)c3ccccc3C2(C)C.O[P](O)([O-])=O,-0.9304018204,G1,3.195280000000003,121.33950000000004,4.0,2.0,8.0,5.0,2.0,0.0,1.0,3.0,110.63,183.00327680693013,6.137434550252468e-07
"sodium 3-[2-heptyl-3-(2-hydroxyethyl)-2,3-dihydro-1H-imidazol-1-yl]propanoate",[Na+].CCCCCCCC1N(CCO)C=CN1CCC([O-])=O,0.2127067575,G1,-2.1018999999999943,76.42580000000004,5.0,1.0,6.0,11.0,0.0,0.0,1.0,1.0,66.84,149.83606301122308,3.9999964750032745e-06
tetrasodium 2-({2-[bis(carboxylatomethyl)amino]ethyl}(carboxylatomethyl)amino)acetate,[Na+].[Na+].[Na+].[Na+].[O-]C(=O)CN(CCN(CC([O-])=O)CC([O-])=O)CC([O-])=O,0.1189898767999999,G3,-19.393999999999984,52.90800000000002,10.0,0.0,14.0,11.0,0.0,0.0,0.0,0.0,167.0,227.02001929761263,-3.008332710291799e-07
chromium(3+) ion trifluoride,[F].[F].[F].[Cr],-0.3384166482,G5,1.2581000000000002,3.3240000000000003,0.0,0.0,4.0,0.0,0.0,0.0,0.0,0.0,0.0,32.42797964509352,-0.0
oxiran-2-ylmethyl 2-methylprop-2-enoate,CC(=C)C(=O)OCC1CO1,-0.4537890803,G1,0.5045000000000001,35.513,3.0,0.0,3.0,3.0,0.0,1.0,1.0,1.0,38.83,59.62208208755322,2.107751696006494
3-nitro-2H-pyrazole,[O-][N+](=O)c1[nH]ncc1,-1.2854728211,G1,0.3178999999999998,25.2421,3.0,1.0,5.0,1.0,1.0,0.0,0.0,1.0,71.82,44.48164081236229,2.9283752374267684
"2-hexoxypropane-1,3-diol",CCCCCCOC(CO)CO,-1.0558122117,G1,0.9365,48.05360000000002,3.0,2.0,3.0,8.0,0.0,0.0,0.0,0.0,49.69,74.3608006769013,3.062399016717871
1-ethyl-1-methylpyrrolidin-1-ium bromide,[Br-].CC[N+]1(C)CCCC1,1.4101871429,G1,-1.749299999999998,35.69339999999999,0.0,0.0,2.0,1.0,0.0,1.0,1.0,1.0,0.0,68.40557982992617,6.399999120000125e-07
potassium benzoate,[K+].[O-]C(=O)c1ccccc1,0.4872673501,G1,-2.945899999999998,30.772499999999997,2.0,0.0,3.0,1.0,1.0,0.0,0.0,1.0,40.13,101.67466578149596,8.099998872750162e-07
1-benzyl-3-carbamoylpyridin-1-ium chloride,[Cl-].NC(=O)c1ccc[n+](Cc2ccccc2)c1,0.2936103731,G1,-1.874699999999996,60.69890000000003,1.0,1.0,4.0,3.0,2.0,0.0,0.0,2.0,46.970000000000006,106.30250707150196,1.4449993557002955e-06
"4-[(3S)-3-ethenyl-3,7-dimethylocta-1,6-dienyl]phenol",CC(C)=CCC[C@@](C)(C=C)\C=C\c1ccc(O)cc1,-6.3370173812,G1,5.344100000000005,84.10980000000005,1.0,1.0,1.0,6.0,1.0,0.0,0.0,1.0,20.23,116.53613314789952,2.7103278273301616
sodium oxidooxy-oxoborane hydrate,O.[Na+].[O-]OB=O,-0.8231002009999999,G1,-5.577699999999998,11.1393,3.0,0.0,6.0,1.0,0.0,0.0,0.0,0.0,80.86000000000001,57.30518369595296,-4.499999910000001e-08
(3-methoxy-3-methylbutyl) acetate,COC(C)(C)CCOC(C)=O,-0.4390291979,G1,1.3646,42.338000000000015,3.0,0.0,3.0,4.0,0.0,0.0,0.0,0.0,35.53,67.68245838766333,3.4519855819553404
Chromic phosphate,[Cr+3].[O-][P]([O-])([O-])=O,0.4859956397,G1,-2.8271,7.6065,4.0,0.0,6.0,0.0,0.0,0.0,0.0,0.0,86.25,45.18013383648277,0.0
benzyldimethyltetradecylazanium chloride,[Cl-].CCCCCCCCCCCCCC[N+](C)(C)Cc1ccccc1,-0.9531217854,G4,3.9681000000000015,108.1994000000001,0.0,0.0,2.0,15.0,1.0,0.0,0.0,1.0,0.0,163.7583174735874,5.759991038414532e-06
nickel(2+) difluoride,[F-].[F-].[Ni++],-0.3833170773,G1,-5.9945,0.0,0.0,0.0,3.0,0.0,0.0,0.0,0.0,0.0,0.0,26.87255630841787,-0.0
"(2,5-dioxoimidazolidin-4-yl)urea",NC(=O)NC1NC(=O)NC1=O,-1.5087824856999998,G5,-2.1798,33.18149999999999,3.0,4.0,7.0,1.0,0.0,1.0,1.0,1.0,113.32,61.30228976545828,2.534438673083989
sodium 7-amino-8-[(E)-2-[2-(benzenesulfonyl)phenyl]diazen-1-yl]-3-sulfonaphthalen-1-olate,[Na+].[O-][S](=O)(=O)C1=CC(=O)C2=C(NNc3ccccc3[S](=O)(=O)c4ccccc4)C(=N)C=CC2=C1,-2.0888316761000003,G1,-0.7782299999999964,119.85710000000005,9.0,3.0,12.0,6.0,2.0,0.0,2.0,4.0,156.32,217.9520115350304,3.2399949190582007e-06
bis(tetrakis(hydroxymethyl)phosphanium) sulfate,OC[P+](CO)(CO)CO.OC[P+](CO)(CO)CO.[O-][S]([O-])(=O)=O,1.9675126996,G1,-3.731599999999998,81.00100000000002,12.0,8.0,15.0,8.0,0.0,0.0,0.0,0.0,242.1,134.46041271226528,-2.7301587005687826e-07
oxetan-2-one,O=C1CCO1,0.7104893861,G1,-0.0666999999999999,15.576,2.0,0.0,2.0,0.0,0.0,1.0,1.0,1.0,26.3,29.738371432644183,2.322405049590992
potassium {[(3-methylbutyl)sulfanyl]carbonyl}sulfanide,[K+].CC(C)CCOC([S-])=S,0.2378897232,G1,-1.1151,45.370000000000026,3.0,0.0,4.0,3.0,0.0,0.0,0.0,0.0,9.23,116.11391843528864,0.0
N-phenyl-N-(piperidin-4-yl)propanamide,CCC(=O)N(C1CC[NH2+]CC1)c2ccccc2,-0.8352255084,G1,1.1554,68.90040000000005,1.0,1.0,3.0,3.0,1.0,1.0,1.0,2.0,36.92,102.8163268349958,2.2116443428545427
sodium 2-(morpholin-4-yl)ethane-1-sulfonate,[Na+].[O-][S](=O)(=O)CCN1CCOCC1,0.1885297454,G1,-4.1321999999999965,41.82320000000002,5.0,0.0,7.0,3.0,0.0,1.0,1.0,1.0,69.67,100.4735449787462,1.4399995212001628e-06
"1,3-dihydroxypropan-2-yl octanoate 2,3-dihydroxypropyl octanoate",CCCCCCCC(=O)OCC(O)CO,0.1794741305,G1,1.2433,57.42760000000005,4.0,2.0,4.0,9.0,0.0,0.0,0.0,0.0,66.76,91.25220700573831,3.257684303383024
lithium(1+) ion benzoate,[Li+].[O-]C(=O)c1ccccc1,0.3909106219,G1,-2.945899999999998,30.772499999999997,2.0,0.0,3.0,1.0,1.0,0.0,0.0,1.0,40.13,71.04966661206578,8.099998872750162e-07
"3-[(1R,3R)-3-[(dimethylcarbamoylamino)methyl]-3,5,5-trimethylcyclohexyl]-1,1-dimethylurea",CN(C)C(=O)NC[C@@]1(C)C[C@@H](CC(C)(C)C1)NC(=O)N(C)C,-1.8938187529,G1,2.1138,88.83140000000006,2.0,2.0,6.0,3.0,0.0,1.0,1.0,1.0,64.68,134.1499874979598,2.7301636775767912
2-[(carbamoylmethyl)(carboxymethyl)amino]acetic acid,NC(=O)C[NH+](CC([O-])=O)CC([O-])=O,-1.7635818574000002,G3,-6.1435999999999975,34.77210000000001,5.0,2.0,7.0,6.0,0.0,0.0,0.0,0.0,127.79,73.73671977155199,4.095996370610992
calcium cyanoazanediide,[Ca++].NC#N,-0.4460963217,G1,-0.95462,15.5544,2.0,1.0,3.0,0.0,0.0,0.0,0.0,0.0,49.81,54.587489401535166,0.0
3-[(2-carboxyethyl)sulfanyl]propanoic acid,OC(=O)CCSCCC(O)=O,-0.7991431977,G3,0.669,41.83060000000002,3.0,2.0,5.0,6.0,0.0,0.0,0.0,0.0,74.6,68.59858332965739,3.0256083367235656
N-Butylphosphorothioic triamide,CCCCN[P](N)(N)=S,-0.7730339165000001,G5,0.518,45.57050000000001,1.0,3.0,5.0,4.0,0.0,0.0,0.0,0.0,64.07,61.3522664047582,3.1817722494383824
hydrazine dihydrochloride,[H+].[Cl-].NN,1.5956288145,G1,-4.0647,9.4868,2.0,2.0,3.0,0.0,0.0,0.0,0.0,0.0,52.04,26.6621179497383,-4.9999999750000005e-09
sodium 4-[(E)-2-(2-hydroxynaphthalen-1-yl)diazen-1-yl]benzene-1-sulfonate,[Na+].Oc1ccc2ccccc2c1N=Nc3ccc(cc3)[S]([O-])(=O)=O,-1.1158578961,G1,0.8689,84.19400000000002,6.0,1.0,8.0,3.0,3.0,0.0,0.0,3.0,102.15,160.45320908673392,2.0833316520152844e-06
"4-{2-[(2E)-5-[bis(propan-2-yl)amino]-3-methyl-2,3-dihydro-1,3,4-thiadiazol-2-ylidene]hydrazin-1-ylidene}-N,N-dimethylcyclohexa-2,5-dien-1-iminium methyl sulfate",CO[S]([O-])(=O)=O.CC(C)N(C(C)C)c1sc(N=Nc2ccc(cc2)N(C)C)[n+](C)n1,-1.2596984381,G1,3.1652000000000013,117.69220000000006,10.0,0.0,12.0,7.0,2.0,0.0,0.0,2.0,114.4,182.3194642108622,6.562498979670311e-07
"lithium(1+) ion 4-[(E)-2-(5-amino-3-methyl-1-phenyl-1H-pyrazol-4-yl)diazen-1-yl]-2,5-dichlorobenzene-1-sulfonate",[Li+].CC1=NN(C(=N)/C1=N/Nc2cc(Cl)c(cc2Cl)[S]([O-])(=O)=O)c3ccccc3,-1.2370685249,G1,0.5427700000000006,105.2396,7.0,2.0,12.0,4.0,2.0,0.0,1.0,3.0,121.04,183.20113248462096,2.803330100320516e-06
4-methyl-2-(2-methylpropyl)oxan-4-ol,CC(C)CC1CC(C)(O)CCO1,2.1376816201,G1,1.9625,49.052800000000026,2.0,1.0,2.0,2.0,0.0,1.0,1.0,1.0,29.46,74.92567788557268,2.3602381863059883
"2,4,6-trimethylbenzene-1,3-diamine",Cc1cc(C)c(N)c(C)c1N,-0.8207163555,G1,1.77626,49.47780000000001,2.0,2.0,2.0,0.0,1.0,0.0,0.0,1.0,52.04,67.20601085671221,3.455546483817784
tempone,CC1(C)CC(=O)CC(C)(C)N1[O],0.1034125496,G1,1.554,44.92450000000002,2.0,0.0,3.0,0.0,0.0,1.0,1.0,1.0,40.21,73.32258481139431,2.9091513032864307
4-methylphenol,Cc1ccc(O)cc1,-0.7015479053,G5,1.7006199999999998,32.843799999999995,1.0,1.0,1.0,0.0,1.0,0.0,0.0,1.0,20.23,48.59057898608958,3.0324555320336755
"sodium 1-amino-4-(cyclohexylamino)-9,10-dioxo-9,10-dihydroanthracene-2-sulfonate",[Na+].Nc1c(cc(NC2CCCCC2)c3C(=O)c4ccccc4C(=O)c13)[S]([O-])(=O)=O,-1.2963650985,G1,-0.3030999999999992,102.62030000000004,7.0,2.0,9.0,3.0,2.0,1.0,2.0,4.0,129.39,190.65120464713632,2.402497528527675e-06
cytidine 3'-(dihydrogen phosphate),NC1=NC(=O)N(C=C1)C2OC(CO[P](O)(O)=O)C(O)C2O,-1.1987753523,G1,-2.446,66.82910000000003,9.0,5.0,12.0,4.0,1.0,1.0,1.0,2.0,177.36,117.35459892576851,2.1580023963313577
"sodium 5-[(2,4-dinitrophenyl)amino]-2-(phenylamino)benzene-1-sulfonate",[Na+].[O-][N+](=O)c1ccc(Nc2ccc(Nc3ccccc3)c(c2)[S]([O-])(=O)=O)c(c1)[N+]([O-])=O,-2.1991373631,G1,0.8982999999999998,107.16340000000004,9.0,2.0,13.0,7.0,3.0,0.0,0.0,3.0,167.54,197.99330297659333,3.413328796806262e-06
methyl 2-aminobenzoate,COC(=O)c1ccccc1N,-1.7338470451,G1,1.0554,42.19390000000001,3.0,1.0,3.0,1.0,1.0,0.0,0.0,1.0,52.32,64.77624537485353,3.032662155800657
"sodium 1-amino-9,10-dioxo-4-(phenylamino)-9,10-dihydroanthracene-2-sulfonate",[Na+].Nc1c(cc(Nc2ccccc2)c3C(=O)c4ccccc4C(=O)c13)[S]([O-])(=O)=O,-2.1738960877,G1,-0.3040999999999991,101.84930000000004,7.0,2.0,9.0,3.0,3.0,0.0,1.0,4.0,129.39,188.52447732035,2.4024976517523884e-06