Name,SMILES,Solubility,Group,MolLogP,MolMR,NumHAcceptors,NumHDonors,NumHeteroatoms,NumRotatableBonds,NumAromaticRings,NumSaturatedRings,NumAliphaticRings,RingCount,TPSA,LabuteASA,BalabanJ
"benzoic acid, 2,2'-(1-oxo-1,2-ethanediyl)bis-",OC(=O)c1ccccc1CC(=O)c2ccccc2C(O)=O,-2.7910000000000004,G1,2.5084,74.83710000000002,3.0,2.0,5.0,5.0,2.0,0.0,0.0,2.0,91.67,120.02129958767078,2.356407631741776
"1,3-benzenedicarboxylic acid, 4-nitro-",OC(=O)c1ccc(c(c1)C(O)=O)[N+]([O-])=O,-1.3391,G1,0.9912,47.01499999999999,4.0,2.0,7.0,3.0,1.0,0.0,0.0,1.0,117.74,82.72577477526953,3.3963489782409875
4-chloroazobenzene,Clc1ccc(cc1)N=Nc2ccccc2,-5.7023,G1,4.7554000000000025,62.07000000000003,2.0,0.0,3.0,2.0,2.0,0.0,0.0,2.0,24.72,93.23854139693177,2.1529892819390977
"2h-1,3-oxazin-2-one, tetrahydro-3-[(5-nitrofurfu",[O-][N+](=O)c1oc(cc1)\C=N\N2CCCOC2=O,-3.4757,G1,1.364,55.62740000000003,6.0,0.0,8.0,3.0,1.0,1.0,1.0,2.0,98.18,95.59794703037652,2.0323424511000088
"naphtho[2,1-b]furan-2(1)h-one",O=C1Cc2c(O1)ccc3ccccc23,-2.7078,G1,2.3013000000000003,53.28700000000002,2.0,0.0,2.0,0.0,2.0,0.0,1.0,3.0,26.3,81.1121880560468,2.3857353309418894
ajmaline,CC[C@@H]1[C@@H](O)N2[C@H]3C[C@@H]1C4C(O)[C@@]5(C[C@H]24)[C@H]3N(C)c6ccccc56,-2.8266,G1,1.5545,91.73460000000006,4.0,2.0,4.0,1.0,1.0,5.0,6.0,7.0,46.940000000000005,142.6195717982021,1.595723318205141
decylpropanedioic acid,CCCCCCCCCCC(C(O)=O)C(O)=O,-3.99,G1,3.302600000000001,65.98860000000005,2.0,2.0,4.0,11.0,0.0,0.0,0.0,0.0,74.6,103.03006810506844,3.431221635663612
"benzenemethanol, 2-hydroxy-5-methyl-",Cc1ccc(O)c(CO)c1,-0.3143,G1,1.1929199999999998,38.7666,2.0,2.0,2.0,1.0,1.0,0.0,0.0,1.0,40.46,59.749754852682194,3.090683646458197
"1h-pyrrole-2-carboxylic acid, 4-ethyl-5-formyl-3",CCOC(=O)c1[nH]c(C=O)c(CC)c1C,-2.7186,G1,1.87472,56.25170000000003,3.0,1.0,4.0,4.0,1.0,0.0,0.0,1.0,59.16,88.63174777088192,3.1439756468869144
niflumic acid,OC(=O)c1cccnc1Nc2cccc(c2)C(F)(F)F,-4.1718,G5,3.542200000000001,65.923,3.0,2.0,7.0,3.0,2.0,0.0,0.0,2.0,62.22,111.44025377992726,2.337930511639871
"2-propanone, 1-(2-piperidinyl)-",CC(=O)CC1CCCCN1,-0.4509,G1,1.1076,40.93970000000001,2.0,1.0,2.0,2.0,0.0,1.0,1.0,1.0,29.1,61.99939895872839,2.191916391200333
"3,4-hexanedione, dioxime",CC\C(NO)=C(\CC)N=O,-2.5525,G1,1.7632,38.3252,4.0,2.0,4.0,4.0,0.0,0.0,0.0,0.0,61.69,59.86722498714085,4.346018801671423
"morpholine, 4,4',4''-phosphinylidynetris-",O=[P](N1CCOCC1)(N2CCOCC2)N3CCOCC3,0.2984,G1,0.0911000000000012,74.78250000000004,4.0,0.0,8.0,3.0,0.0,3.0,3.0,3.0,54.48,119.8144855521028,1.8129924932639865
"benzenesulfonamide, 4-amino-n-(4,5-dimethyl-2-py",Cc1cnc(N[S](=O)(=O)c2ccc(N)cc2)nc1C,-3.1435,G1,1.47644,73.16890000000002,5.0,2.0,7.0,3.0,2.0,0.0,0.0,2.0,97.97,111.30820628928306,2.304477129711624
"1,1,3-trimethylcyclopentane",CC1CCC(C)(C)C1,-4.4784,G1,2.832600000000001,36.79599999999999,0.0,0.0,0.0,0.0,0.0,1.0,1.0,1.0,0.0,52.288014675076575,2.4354397213453027
"piperazine-2,5-dione, 3-methyl-",CC1NC(=O)CNC1=O,0.2903,G1,-1.3790999999999998,30.6144,2.0,2.0,4.0,0.0,0.0,1.0,1.0,1.0,58.2,52.615956899190365,2.535054425271875
n-nitrosomethylvinylamine,CN(C=C)N=O,-0.4579,G3,0.7431,23.754999999999992,2.0,0.0,3.0,2.0,0.0,0.0,0.0,0.0,32.67,36.20423389910734,3.206906886091862
4-pyrimidone,O=C1NC=NC=C1,0.586,G1,-0.2300999999999999,24.8577,2.0,1.0,3.0,0.0,1.0,0.0,0.0,1.0,45.75,40.03222118143375,3.27532977603021
"2,4,6-cycloheptatrien-1-one, 3-bromo-2-hydroxy-",OC1=C(Br)C=CC=CC1=O,-2.4352,G1,1.5148999999999997,42.07680000000001,2.0,1.0,3.0,0.0,1.0,0.0,0.0,1.0,37.3,66.26519413731032,3.5276549536297805
"ethanone, 1-(2-methyloxiranyl)-",CC(=O)C1(C)CO1,0.3797,G1,0.3642999999999999,25.03799999999999,2.0,0.0,2.0,1.0,0.0,1.0,1.0,1.0,29.6,42.4682556614374,2.5466113409770674
"glycine, n-[(ethylthio)thioxomethyl]-",CCSC(=S)NCC(O)=O,-1.0882,G1,0.6985999999999999,46.36850000000001,3.0,2.0,5.0,3.0,0.0,0.0,0.0,0.0,49.33,69.18652779383392,3.3038725481541023
lactulose,OC[C@H]1O[C@@H](O[C@@H]2[C@@H](CO)O[C@](O)(CO)[C@H]2O)[C@H](O)[C@@H](O)[C@H]1O,0.3487,G1,-5.395599999999993,68.64140000000003,11.0,8.0,11.0,5.0,0.0,2.0,2.0,2.0,189.53,130.43645768522254,2.128188408986388
"carbamic acid, diethyl-, methyl ester",CCN(CC)C(=O)OC,-0.2918,G1,1.0946,35.32599999999999,2.0,0.0,3.0,2.0,0.0,0.0,0.0,0.0,29.540000000000003,55.59886259956661,3.6437564476124793
"1-naphthalenebutanoic acid, .gamma.-oxo-",OC(=O)CCC(=O)c1cccc2ccccc12,-3.4833,G1,2.887300000000001,65.14830000000003,2.0,1.0,3.0,4.0,2.0,0.0,0.0,2.0,54.37,98.69011406110216,2.34697086323985
d-fenchone,CC1(C)[C@@H]2CC[C@@](C)(C2)C1=O,-1.8507,G1,2.401700000000001,44.23600000000002,1.0,0.0,1.0,0.0,0.0,2.0,2.0,2.0,17.07,68.17358985038433,2.416428519178835
"phosphonic diamide, p-phenyl-",N[P](N)(=O)c1ccccc1,-1.1482,G1,0.4223999999999995,42.05730000000001,1.0,2.0,4.0,1.0,1.0,0.0,0.0,1.0,69.11,59.51320316513184,3.087636787033165
"1,3-propanediamine, n-phenyl-",NCCCNc1ccccc1,-1.6543,G1,1.4472999999999998,48.603100000000026,2.0,2.0,2.0,4.0,1.0,0.0,0.0,1.0,38.05,67.41598234330755,2.2758012873675093
nitralin,CCCN(CCC)c1c(cc(cc1[N+]([O-])=O)[S](C)(=O)=O)[N+]([O-])=O,-5.7601,G1,2.5329000000000006,85.65560000000004,7.0,0.0,10.0,8.0,1.0,0.0,0.0,1.0,123.66,133.67718141726277,3.769656534349374
n-phenylphthalamic acid,OC(=O)c1ccccc1C(=O)Nc2ccccc2,-4.0814,G1,2.637100000000001,67.79650000000002,2.0,2.0,4.0,3.0,2.0,0.0,0.0,2.0,66.39999999999999,103.8855216902458,2.2708322641159984
kryptocyanine,[I-].CCN1C=CC(=CC=Cc2cc[n+](CC)c3ccccc23)c4ccccc14,-2.6816,G1,2.601600000000001,115.43000000000004,1.0,0.0,3.0,4.0,3.0,0.0,1.0,4.0,7.12,184.0781883055593,2.2499975512527404e-06
3-chloro-2-nitrobenzoic acid,[O-]C(=O)c1cccc(Cl)c1[N+]([O-])=O,-2.6323,G1,0.6116999999999999,42.4369,4.0,0.0,6.0,2.0,1.0,0.0,0.0,1.0,83.26999999999998,77.70834303551482,3.427344204506423
"serine, o-ethyl-",CCOC[C@H](N)C(O)=O,0.524,G1,-0.5651999999999995,32.10419999999999,3.0,2.0,4.0,4.0,0.0,0.0,0.0,0.0,72.55000000000001,53.60821126417535,3.2659073992264416
"propanoic acid, 2,2'-dithiobis-",OC(=O)CCSSCCC(O)=O,-0.9301,G3,1.3172,49.42160000000002,4.0,2.0,6.0,7.0,0.0,0.0,0.0,0.0,74.6,78.1216554413723,3.0073056362946597
crotononitrile,C/C=C/C#N,-0.4287,G1,1.08608,20.426999999999992,1.0,0.0,1.0,0.0,0.0,0.0,0.0,0.0,23.79,31.53705402030383,3.044400719010069
1-hexen-3-ol,CCCC(O)C=C,-0.5993,G1,1.3334,31.111799999999985,1.0,1.0,1.0,3.0,0.0,0.0,0.0,0.0,20.23,44.66859231982434,2.9843602328703267
4-methyl-1-penten-3-ol,CC(C)C(O)C=C,-0.515,G3,1.1893,31.041799999999984,1.0,1.0,1.0,2.0,0.0,0.0,0.0,0.0,20.23,44.668592319824334,3.329976597974793
2-hexene-4-ol,CCC(O)\C=C\C,-0.4198,G3,1.3334,31.111799999999985,1.0,1.0,1.0,2.0,0.0,0.0,0.0,0.0,20.23,44.66859231982434,3.159487600385118
"benzenepropanoic acid, .alpha.-oxo-.beta.-phenyl",OC(=O)C(=O)C(c1ccccc1)c2ccccc2,-2.3354,G1,2.472200000000001,67.36980000000003,2.0,1.0,3.0,4.0,2.0,0.0,0.0,2.0,54.37,104.70060162103438,2.484673344040051
kasugamycin,CN(C)C(=O)Nc1cccc(OC(=O)NC(C)(C)C)c1,-2.9342,G1,2.6670000000000007,78.06040000000004,3.0,2.0,6.0,2.0,1.0,0.0,0.0,1.0,70.67,118.6470875016837,2.687869436009675
"phosphinic acid, di-4-morpholinyl-, phenyl ester",O=[P](Oc1ccccc1)(N2CCOCC2)N3CCOCC3,0.3925,G1,1.8378999999999996,79.46050000000005,4.0,0.0,7.0,4.0,1.0,2.0,2.0,3.0,51.24,124.68826966627545,1.8335359910017608
"propanoic acid, 3-hydroxy-, butyl ester",CCCCOC(=O)CCO,-1.2899,G1,0.7121,37.5698,3.0,1.0,3.0,5.0,0.0,0.0,0.0,0.0,46.53,60.99820479595585,3.052375189045708
"butanedioic acid, 2,2'-thiobis-",OC(=O)CC(SC(CC(O)=O)C(O)=O)C(O)=O,-0.4908,G1,-0.4245999999999999,54.9442,5.0,4.0,9.0,8.0,0.0,0.0,0.0,0.0,149.2,99.2399792629302,4.669056914112521
3-methyl-2-nitrophenol,Cc1cccc(O)c1[N+]([O-])=O,-1.64,G1,1.60882,39.49820000000002,3.0,1.0,4.0,1.0,1.0,0.0,0.0,1.0,63.37,63.243554708589386,3.318913173486668
"acetamide, 2-chloro-n-(chloroacetyl)-",ClCC(=O)NC(=O)CCl,-2.2304,G1,0.1067999999999998,34.5897,2.0,1.0,5.0,2.0,0.0,0.0,0.0,0.0,46.17,62.31351620847829,3.4713176263221484
"2-benzothiazolesulfenamide, n,n-dicyclohexyl-",C1CCC(CC1)N(Sc2sc3ccccc3n2)C4CCCCC4,-6.7886,G4,6.270800000000006,101.06200000000008,4.0,0.0,4.0,4.0,2.0,2.0,2.0,4.0,16.130000000000003,147.35904317448816,1.552957122061705
"benzoic acid, 4,5-dimethoxy-2-nitro-",COc1cc(C([O-])=O)c(cc1OC)[N+]([O-])=O,-0.7543,G1,-0.0245000000000001,50.53090000000001,6.0,0.0,7.0,4.0,1.0,0.0,0.0,1.0,101.73,90.36205149644012,3.472364748554156
"benzoic acid, 2-(acetyloxy)-, 4-(acetylamino)phe",CC(=O)Nc1ccc(OC(=O)c2ccccc2OC(C)=O)cc1,-4.1949,G1,2.789500000000001,83.45520000000003,5.0,1.0,6.0,4.0,2.0,0.0,0.0,2.0,81.69999999999999,132.57472684029716,2.127760005841159
"piperidine, 1-(phenylsulfonyl)-",O=[S](=O)(N1CCCCC1)c2ccccc2,-2.5365,G1,1.8612,59.05180000000004,2.0,0.0,4.0,2.0,1.0,1.0,1.0,2.0,37.38,90.77089210056926,2.263931581175127
"benzeneacetonitrile, .alpha.-(diethylamino)-",CCN(CC)C(C#N)c1ccccc1,-0.9738,G1,2.5930800000000005,57.71700000000004,2.0,0.0,2.0,4.0,1.0,0.0,0.0,1.0,27.03,85.77346915754872,2.8791512162471458
"quinoline, 2-(nitromethyl)-",[O-][N+](=O)Cc1ccc2ccccc2n1,-2.0545,G1,2.0115,52.441400000000016,3.0,0.0,4.0,2.0,2.0,0.0,0.0,2.0,56.03,80.35063346907509,2.4574956097268665
ditalimfos (laptran),CCO[P](=S)(OCC)N1C(=O)c2ccccc2C1=O,-3.3522,G1,2.5801000000000007,74.47900000000003,5.0,0.0,7.0,5.0,1.0,0.0,1.0,2.0,55.84,116.27466020249584,2.4501912093629694
"hexanedioic acid, 2,5-dimercapto-",OC(=O)C(S)CCC(S)C(O)=O,-2.4758,G1,0.5326,50.05360000000002,4.0,4.0,6.0,5.0,0.0,0.0,0.0,0.0,74.6,80.78560663109562,3.6806583316694943
"l-aspartic acid, n-[(ethylthio)thioxomethyl]-",CCSC(=S)N[C@@H](CC(O)=O)C(O)=O,-1.3863,G1,0.5419,57.54230000000001,4.0,3.0,7.0,5.0,0.0,0.0,0.0,0.0,86.63,90.87216787486696,4.156857495504796
"ethane, 1,1'-oxybis[2-[(2-chloroethyl)sulfonyl]-",ClCC[S](=O)(=O)CCOCC[S](=O)(=O)CCCl,-1.9408,G1,0.3102000000000002,69.56660000000004,5.0,0.0,9.0,10.0,0.0,0.0,0.0,0.0,77.51,112.26472027544918,3.735278340097581
"1,4-benzenedicarboxylic acid, 2-methoxy-",COc1cc(ccc1C(O)=O)C(O)=O,-1.9916,G1,1.0916,46.912600000000005,3.0,2.0,5.0,3.0,1.0,0.0,0.0,1.0,83.83000000000001,79.55128639667323,3.245789976388745
"acetamide, n-(4-chloro-2-methylphenyl)-",CC(=O)Nc1ccc(Cl)cc1C,-2.3097,G1,2.606820000000001,50.49270000000002,1.0,1.0,3.0,1.0,1.0,0.0,0.0,1.0,29.1,76.54087997322026,2.9348021246299894
dimethirimol,CCCCC1=C(C)NC(=NC1=O)N(C)C,-2.2416,G1,1.48692,62.53370000000003,3.0,1.0,4.0,4.0,1.0,0.0,0.0,1.0,48.99,90.34664965241338,3.0460833949315185
"benzeneacetic acid, -[(sulfooxy)methyl]-, 8-meth",CN1C2CCC1CC(C2)OC(=O)C(CO[S](O)(=O)=O)c3ccccc3,-1.5675,G1,1.7579999999999998,90.37060000000008,6.0,1.0,8.0,6.0,1.0,2.0,2.0,3.0,93.14,147.4201901861607,1.6856181090944464
cyclohexylacetic acid,OC(=O)CC1CCCCC1,-1.6935,G1,2.0414000000000003,38.8278,1.0,1.0,2.0,2.0,0.0,1.0,1.0,1.0,37.3,61.24377052731636,2.191916391200333
"propanamide, n-hexadecyl-2-hydroxy-",CCCCCCCCCCCCCCCCNC(=O)C(C)O,-3.6512,G1,4.964700000000005,95.00250000000008,2.0,2.0,3.0,16.0,0.0,0.0,0.0,0.0,49.33,137.81382712281635,3.0405748352461126
"propanamide, 2-hydroxy-n-pentyl-",CCCCCNC(=O)C(C)O,-0.3825,G1,0.6735999999999998,44.21550000000001,2.0,2.0,3.0,5.0,0.0,0.0,0.0,0.0,49.33,67.79946386445361,3.178167514720856
"d-glycero-d-gulo-heptopyranoside, phenyl, á-",OCC(O)C1OC(Oc2ccccc2)C(O)C(O)C1O,-1.5537,G1,-1.7738000000000005,66.84400000000004,7.0,5.0,7.0,4.0,1.0,1.0,1.0,2.0,119.61,115.17842598673782,2.113871160709672
"phosphonic acid, 3-(nitrophenyl)-",O[P](O)(=O)c1cccc(c1)[N+]([O-])=O,0.6835,G1,0.3977999999999998,44.77450000000002,3.0,2.0,7.0,2.0,1.0,0.0,0.0,1.0,100.67,73.13578676273664,3.2093911682575897
"3-pyridinecarboxylic acid, decyl ester",CCCCCCCCCCOC(=O)c1cccnc1,-3.1901,G1,4.379100000000004,77.12950000000005,3.0,0.0,3.0,10.0,1.0,0.0,0.0,1.0,39.19,115.94048168835684,1.9493536257199744
"dl-leucine, n-formyl-",CC(C)CC(NC=O)C(O)=O,-0.7328,G1,0.2316999999999998,40.0785,2.0,2.0,4.0,5.0,0.0,0.0,0.0,0.0,66.4,65.59604385010078,3.883261782544808
"methanesulfonamide, n-(methylsulfonyl)-",C[S](=O)(=O)N[S](C)(=O)=O,0.0402,G1,-1.5047999999999992,32.8233,4.0,1.0,7.0,2.0,0.0,0.0,0.0,0.0,80.31,54.175607110664366,4.4582270815509055
"propionic acid, 3-methoxy-, propyl ester",CCCOC(=O)CCOC,-0.6598,G1,0.9761,37.743,3.0,0.0,3.0,5.0,0.0,0.0,0.0,0.0,35.53,61.31751627326671,3.0863484262353005
"1,1,4,4-tetramethoxy-but-2-ene",COC(OC)\C=C/C(OC)OC,0.055,G1,0.7804,44.75200000000002,4.0,0.0,4.0,6.0,0.0,0.0,0.0,0.0,36.92,73.05842371444906,3.8267962892963663
"1h-pyrrole, 2,3-dihydro-1,5-dimethyl-",CN1CCC=C1C,0.1265,G1,1.2257,31.003999999999987,1.0,0.0,1.0,0.0,0.0,0.0,1.0,1.0,3.24,44.62836108430247,2.5387579921231493
"phosphonothioic  dihydrazide, p-phenyl-",NN[P](=S)(NN)c1ccccc1,-1.425,G1,-0.4519999999999993,55.007200000000005,3.0,4.0,6.0,3.0,1.0,0.0,0.0,1.0,76.1,76.38351700155575,3.041596645134811
"acetic acid, (3,5-dimethylphenoxy)-",Cc1cc(C)cc(OCC(O)=O)c1,-2.3527,G1,1.76684,49.046800000000026,2.0,1.0,3.0,3.0,1.0,0.0,0.0,1.0,46.53,76.96047265883006,2.713242192766617
"2,8-dichlorodibenzofuran",Clc1ccc2oc3ccc(Cl)cc3c2c1,-7.2135,G1,4.892800000000002,63.740000000000016,1.0,0.0,3.0,0.0,3.0,0.0,0.0,3.0,13.14,96.19559390080757,2.5452302518329004
n-hexyl-lactamide,CCCCCCNC(=O)C(C)O,-0.9487,G1,1.0637,48.83250000000002,2.0,2.0,3.0,6.0,0.0,0.0,0.0,0.0,49.33,74.16440597885023,3.143237500372718
2-acetoxy-propionic acid butyl ester,CCCCOC(=O)C(C)OC(C)=O,-0.7536,G1,1.2813,47.09500000000003,4.0,0.0,4.0,5.0,0.0,0.0,0.0,0.0,52.6,78.2089226021037,3.628682429201735
"1h-purine-2,6-dione, 8-ethyl-3,7-dihydro-1,3,7-t",CCc1nc2N(C)C(=O)N(C)C(=O)c2n1C,-1.5687,G1,-0.4669000000000001,60.57400000000002,6.0,0.0,6.0,1.0,2.0,0.0,0.0,2.0,61.82,91.75884124694254,3.1253965731057147
"imidodicarbonimidic diamide, n-2-naphthalenyl-",NC(N)=NC(N)=Nc1ccc2ccccc2c1,-2.5497,G1,1.0594000000000003,71.04020000000001,1.0,3.0,5.0,1.0,2.0,0.0,0.0,2.0,102.78,98.6532689427838,2.402415219664146
"(2,5-dioxoimidazolidin-4-yl)acetic acid",OC(=O)CC1NC(=O)NC1=O,-1.1517,G1,-1.3309000000000002,32.71519999999999,3.0,3.0,6.0,2.0,0.0,1.0,1.0,1.0,95.5,61.57171275143014,2.534438673083989
"phenol, 2-methyl-5-nitro-",Cc1ccc(cc1O)[N+]([O-])=O,-2.1851,G1,1.60882,39.49820000000002,3.0,1.0,4.0,1.0,1.0,0.0,0.0,1.0,63.37,63.243554708589386,3.1515496683060507
"carbamothioic acid, s-[2-oxo-2-(phenylamino)ethy",NC(=O)SCC(=O)Nc1ccccc1,-1.3228,G1,1.437,57.11310000000002,3.0,2.0,5.0,3.0,1.0,0.0,0.0,1.0,72.19,85.86213656876033,2.3807618619125828
"butanedioic acid, (diphenylmethylene)-, 1-ethyl",CCOC(=O)C(CC(O)=O)=C(c1ccccc1)c2ccccc2,-2.1908,G1,3.5263000000000018,87.79180000000004,3.0,1.0,4.0,6.0,2.0,0.0,0.0,2.0,63.6,134.58431227594343,2.6829209513675774
"6h-purin-6-one, 2-chloro-1,7-dihydro-7-methyl-,",Cn1cnc2nc(Cl)nc(NN)c12,-1.1427,G1,0.3022999999999998,49.1241,6.0,2.0,7.0,1.0,2.0,0.0,0.0,2.0,81.65,78.71924074381535,2.8478790800873237
"4h-pyran-3,5-dicarboxylic acid, 2,6-dimethyl-4-o",CCOC(=O)C1=C(C)OC(=C(C(=O)OCC)C1=O)C,-1.5255,G1,1.61004,66.36500000000002,6.0,0.0,6.0,4.0,1.0,0.0,0.0,1.0,82.81,109.86741361782391,3.4288325241650823
"benzenamine, 2-iodo-5-nitro-",Nc1cc(ccc1I)[N+]([O-])=O,-4.4216,G1,1.7816,50.2258,3.0,1.0,5.0,1.0,1.0,0.0,0.0,1.0,69.16,76.68610766005311,3.1515496683060507
"l-glutamic acid, n,n-bis(2-cyanoethyl)-",OC(=O)CCC(N(CCC#N)CCC#N)C(O)=O,-0.2275,G1,0.4337600000000001,60.32660000000003,5.0,2.0,7.0,9.0,0.0,0.0,0.0,0.0,125.42000000000002,104.845176909416,4.626617784110546
"dl-methionine, n,n-bis(2-cyanoethyl)-",CSCCC(N(CCC#N)CCC#N)C(O)=O,-1.3279,G1,1.32206,66.45580000000004,5.0,1.0,6.0,9.0,0.0,0.0,0.0,0.0,88.12,106.01253108254149,4.500564983828521
"propanoic acid, 2-hydroxy-, octyl ester",CCCCCCCCOC(=O)C(C)O,-1.2726,G1,2.2709000000000006,56.01580000000005,3.0,1.0,3.0,8.0,0.0,0.0,0.0,0.0,46.53,86.45797325354228,3.0958455805317366
"2h-1,4-benzoxazin-3(4h)-one",O=C1COc2ccccc2N1,-2.5716,G1,1.0174999999999998,40.56670000000001,2.0,1.0,3.0,0.0,1.0,0.0,1.0,2.0,38.33,63.98038570791964,2.4141310245037477
"2-butenedioic acid, 2-propyl-, (e)-",CCC\C(=C/C(O)=O)C(O)=O,-1.1538,G1,0.8821000000000001,38.26259999999999,2.0,2.0,4.0,4.0,0.0,0.0,0.0,0.0,74.6,64.15081238650448,4.323566371666372
"1,4-piperazinedicarboxylic acid, diethyl ester",CCOC(=O)N1CCN(CC1)C(=O)OCC,-0.7288,G1,0.9170000000000004,57.19000000000003,4.0,0.0,6.0,2.0,0.0,1.0,1.0,1.0,59.08,95.0877009033778,2.331080355912676
"2,6-di-sec-butylphenol",CC[C@@H](C)c1cccc([C@@H](C)CC)c1O,-5.0593,G1,4.4192000000000045,65.51880000000004,1.0,1.0,1.0,4.0,1.0,0.0,0.0,1.0,20.23,93.14517378686584,3.106332489284297
"pyrene, 1-nitro-",[O-][N+](=O)c1ccc2ccc3cccc4ccc1c2c34,-7.3213,G1,4.492200000000002,76.80040000000004,2.0,0.0,3.0,1.0,4.0,0.0,0.0,4.0,43.14,108.10839731733796,2.381198790112986
"hydrazinecarboxamide, 1-ethyl-2-[(5-nitro-2-fura",CCN(/N=C/c1oc(cc1)[N+]([O-])=O)C(N)=O,-2.9395,G1,0.9223,54.919800000000016,5.0,1.0,8.0,4.0,1.0,0.0,0.0,1.0,114.97,90.465181537015,2.7503980104629417
6-phenylcaproic acid,OC(=O)CCCCCc1ccccc1,-2.6026,G1,2.874100000000001,56.24980000000004,1.0,1.0,2.0,6.0,1.0,0.0,0.0,1.0,37.3,84.57681165811641,2.075081895525038
3-methyl-3-heptanol,CCCCC(C)(O)CC,-1.7356,G3,2.3376,40.439800000000005,1.0,1.0,1.0,4.0,0.0,0.0,0.0,0.0,20.23,58.08807958080181,3.330074215693167
"1-cyclopentene-1-carboxylic acid, 2,3,3-trimethy",CC1=C(CCC1(C)C)C(O)=O,-2.8871,G1,2.2075,43.350800000000014,1.0,1.0,2.0,1.0,0.0,0.0,1.0,1.0,37.3,66.9191096095287,2.9879737390397145
chlorpyrifos methyl,CO[P](=S)(OC)Oc1nc(Cl)c(Cl)cc1Cl,-4.831,G5,3.9379000000000017,68.19800000000002,5.0,0.0,9.0,4.0,1.0,0.0,0.0,1.0,40.58,113.01129780161531,3.0637668536422646
triamcinolone hexacetonide,CC(C)(C)CC(=O)OCC(=O)[C@@]12OC(C)(C)O[C@@H]1C[C@H]3[C@@H]4CCC5=CC(=O)C=C[C@]5(C)[C@@]4(F)[C@@H](O)C[C@]23C,-5.1244,G1,4.405900000000004,136.5438,7.0,1.0,8.0,4.0,0.0,4.0,5.0,5.0,99.13,223.69918165709063,1.511026481335621
"cyclopropane, ethoxy-",CCOC1CC1,-0.6407,G1,1.1853,24.64799999999999,1.0,0.0,1.0,2.0,0.0,1.0,1.0,1.0,9.23,38.30673356139363,1.8762858948376275
"1h-purine-1-acetic acid, 2,3,6,7-tetrahydro-3,7-",Cn1cnc2N(C)C(=O)N(CC([O-])=O)C(=O)c12,-1.3769,G1,-2.816399999999999,55.22200000000001,8.0,0.0,8.0,2.0,2.0,0.0,0.0,2.0,101.95,94.34965498478572,2.943934293328045
"3,6-dimethylpiperazine-2,5-dione",C[C@@H]1NC(=O)[C@@H](C)NC1=O,-0.1528,G1,-0.9906,35.209399999999995,2.0,2.0,4.0,0.0,0.0,1.0,1.0,1.0,58.2,58.98089901358698,2.631435737817297
"2-pyrrolidinecarboxamide, 5-oxo-n-phenyl-",O=C1CCC(N1)C(=O)Nc2ccccc2,-1.3278,G1,0.9036999999999998,56.236400000000025,2.0,2.0,4.0,2.0,1.0,1.0,1.0,2.0,58.2,87.67305110525442,1.9556638322594413
"phenol, 4-(phenylthio)-",Oc1ccc(Sc2ccccc2)cc1,-2.7745,G1,3.543400000000002,58.67180000000003,2.0,1.0,2.0,2.0,2.0,0.0,0.0,2.0,20.23,87.40584110312226,2.155110851234288
"ethane, 1,1'-[oxybis(methyleneoxy)]bis-",CCOCOCOCC,-0.1277,G1,0.991,34.07099999999999,3.0,0.0,3.0,6.0,0.0,0.0,0.0,0.0,27.69,55.90459728833323,2.595082706793886
"naphtho[1,2-c]furan-1(3h)-one",O=C1OCc2ccc3ccccc3c12,-3.3062,G1,2.510200000000001,53.06750000000002,2.0,0.0,2.0,0.0,2.0,0.0,1.0,3.0,26.3,81.11218805604679,2.471276757014713
"glycine, n-(2-furanylcarbonyl)-",OC(=O)CNC(=O)c1occc1,-0.7272,G1,0.0939999999999997,38.677000000000014,3.0,2.0,5.0,3.0,1.0,0.0,0.0,1.0,79.54,67.98769886265521,2.450965128225179
"5-thiazolecarboxylic acid, 2-[[(4-aminophenyl)su",Nc1ccc(cc1)[S](=O)(=O)Nc2sc(cn2)C(O)=O,-2.8741,G1,1.2243000000000002,70.73620000000001,6.0,3.0,9.0,4.0,2.0,0.0,0.0,2.0,122.38,112.31973531659122,2.252455337795675
"butanedioic acid, 2,2-diethyl-",CCC(CC)(CC(O)=O)C(O)=O,-0.7962,G1,1.3521,42.9036,2.0,2.0,4.0,5.0,0.0,0.0,0.0,0.0,74.6,71.20535753308538,4.575138616166866
"benzenepropanoic acid, .alpha.,.beta.-dihydroxy-",OC(C(O)c1ccccc1)C(O)=O,-0.3063,G1,0.1654999999999999,45.04440000000002,3.0,3.0,4.0,3.0,1.0,0.0,0.0,1.0,77.75999999999999,75.0704528193186,2.792516902249824
"hydrocinnamic acid, .alpha.-ethylidene-",CC=C(Cc1ccccc1)C(O)=O,-2.5648,G1,2.26,51.53880000000002,1.0,1.0,2.0,3.0,1.0,0.0,0.0,1.0,37.3,77.52226651153553,2.7442885049353247
"benzoic acid, 4-[(3-pyridinylcarbonyl)amino]-",OC(=O)c1ccc(NC(=O)c2cccnc2)cc1,-3.0832,G1,2.0321,65.59150000000001,3.0,2.0,5.0,3.0,2.0,0.0,0.0,2.0,79.29,103.10516967119231,2.102582404693958