Name,SMILES,Solubility,Group,MolLogP,MolMR,NumHAcceptors,NumHDonors,NumHeteroatoms,NumRotatableBonds,NumAromaticRings,NumSaturatedRings,NumAliphaticRings,RingCount,TPSA,LabuteASA,BalabanJ
"2,3,5,6-tetrachloropyridine",Clc1cc(Cl)c(Cl)nc1Cl,-3.8614246907,G3,3.6952,44.277,1.0,0.0,5.0,0.0,1.0,0.0,0.0,1.0,12.89,77.86411600797017,3.2824629074535228
"4-naphthalen-2-yl-1,3-thiazol-2-amine",Nc1scc(n1)c2ccc3ccccc3c2,-4.849542252,G1,3.545500000000001,69.46840000000002,3.0,1.0,3.0,1.0,3.0,0.0,0.0,3.0,38.91,97.37006380566692,2.181543286187168
2-benzylheptan-1-ol,CCCCCC(CO)Cc1ccccc1,-3.8432685623,G1,3.417900000000002,64.86380000000005,1.0,1.0,1.0,7.0,1.0,0.0,0.0,1.0,20.23,93.14517378686588,2.331616495458083
decanal,CCCCCCCCCC=O,-3.7255255026,G1,3.3260000000000023,48.67400000000003,1.0,0.0,1.0,8.0,0.0,0.0,0.0,0.0,17.07,70.1852521574428,2.7376715685719475
"(2E)-3,7-dimethylocta-2,6-dien-1-yl acetate",CC(=O)OC/C=C(C)/CCC=C(C)C,-3.8305001771,G1,3.242200000000002,59.05500000000004,2.0,0.0,2.0,5.0,0.0,0.0,0.0,0.0,26.3,86.64947555137438,3.670448527133007
"4,8-dimethyldeca-4,9-dienal",CC(CC/C=C(C)/CCC=O)C=C,-3.7935760497,G1,3.5141000000000027,57.65000000000004,1.0,0.0,1.0,7.0,0.0,0.0,0.0,0.0,17.07,81.53593032186751,3.570770385643759
"methyl 2,2,2-trifluoroacetate",COC(=O)C(F)(F)F,-0.6479837034,G1,0.7216999999999999,18.071,2.0,0.0,5.0,0.0,0.0,0.0,0.0,0.0,26.3,43.24080879495212,3.823378455220923
3-ethoxy-4-hydroxybenzaldehyde,CCOc1cc(C=O)ccc1O,-1.7642022678,G1,1.6034,44.66330000000002,3.0,1.0,3.0,3.0,1.0,0.0,0.0,1.0,46.53,70.59553054443344,2.988070081412113
4-phenylbutan-2-one,CC(=O)CCc1ccccc1,-1.7160179957,G1,2.2082,45.44400000000003,1.0,0.0,1.0,3.0,1.0,0.0,0.0,1.0,17.07,67.05269367712717,2.453018743531937
"N-(4-chloro-2,5-dimethoxyphenyl)-3-oxobutanamide",COc1cc(NC(=O)CC(C)=O)c(OC)cc1Cl,-2.9792447784,G1,2.2748,68.48370000000003,4.0,1.0,6.0,5.0,1.0,0.0,0.0,1.0,64.63,110.0243188754676,2.9903385951462527
3-phenylprop-2-en-1-yl acetate,CC(=O)OC\C=C\c1ccccc1,-2.7927245342,G3,2.2629,52.10900000000003,2.0,0.0,2.0,3.0,1.0,0.0,0.0,1.0,26.3,77.84157798884641,2.3677193200379056
"[2-[2-oxo-5-(2,4,4-trimethylpentan-2-yl)-3H-1-benzofuran-3-yl]-4-(2,4,4-trimethylpentan-2-yl)phenyl] acetate",CC(=O)Oc1ccc(cc1C2C(=O)Oc3ccc(cc23)C(C)(C)CC(C)(C)C)C(C)(C)CC(C)(C)C,-6.6925825623,G1,8.090400000000008,145.86699999999985,4.0,0.0,4.0,6.0,2.0,0.0,1.0,3.0,52.60000000000001,217.3316431190653,2.1562514457235435
2-hydroxypropanoic acid - 5-{[(2-ethylhexyl)carbamoyl]oxy}-2-methylphenyl [2-(dimethylamino)ethyl]carbamate (1:1) (non-preferred name),CCCCC(CC)COC(=O)Nc1ccc(C)c(NC(=O)OCCN(C)C)c1.CC(O)C(O)=O,-0.2351938248,G1,4.321820000000003,132.29700000000008,7.0,4.0,10.0,12.0,1.0,0.0,0.0,1.0,137.43,202.1658746331217,1.598928155187427e-06
"2,6-dimethyloctan-2-ol",CCC(C)CCCC(C)(C)O,-2.7493446847000005,G1,2.9737000000000022,49.60380000000003,1.0,1.0,1.0,5.0,0.0,0.0,0.0,0.0,20.23,70.81796380959504,3.275716275334584
troclosene sodium,[Na+].ClN1C(=O)[N-]C(=O)N(Cl)C1=O,-0.8951600114,G4,-4.6648000000000005,37.054,5.0,0.0,9.0,0.0,1.0,0.0,0.0,1.0,75.17,97.2381300772398,1.2099998083250311e-06
3-amino-4-hydroxybenzene-1-sulfonic acid,Nc1cc(ccc1O)[S](O)(=O)=O,-1.8297447369,G1,0.2210999999999999,42.3338,4.0,3.0,6.0,1.0,1.0,0.0,0.0,1.0,100.62,69.19416357874631,3.327295999016508
"11,17,21-trihydroxypregn-4-ene-3,20-dione",C[C@]12CCC(=O)C=C1CC[C@H]3[C@@H]4CC[C@](O)(C(=O)CO)[C@@]4(C)C[C@H](O)[C@H]23,-3.1121092438,G3,1.7816,95.14240000000004,5.0,3.0,5.0,2.0,0.0,3.0,4.0,4.0,94.83,154.03091112613612,1.7350832012021693
octadec-9-enoic acid - 2-aminoethanol (1:1),CCCCCCCC/C=C/CCCCCCCC(O)=O.NCCO,-3.0888344498,G1,5.045900000000004,103.22800000000008,3.0,3.0,4.0,16.0,0.0,0.0,0.0,0.0,83.55,149.07925962415862,0.0
"2-methyl-4-(2,2,3-trimethylcyclopent-3-en-1-yl)butan-1-ol",CC(CO)CCC1CC=C(C)C1(C)C,-3.8427464064,G1,3.387400000000002,61.12880000000005,1.0,1.0,1.0,4.0,0.0,0.0,1.0,1.0,20.23,88.21735596707137,2.4143102652708763
"N,N-dimethyldodecanamide",CCCCCCCCCCCC(=O)N(C)C,-3.9093070505,G1,3.9955000000000034,70.53800000000005,1.0,0.0,2.0,10.0,0.0,0.0,0.0,0.0,20.31,101.40485428523262,3.06855151382054
4-tert-butylcyclohexan-1-ol,CC(C)(C)C1CCC(O)CC1,-3.1032621252,G5,2.583600000000001,47.41980000000002,1.0,1.0,1.0,0.0,0.0,1.0,1.0,1.0,20.23,69.8121326560658,2.3936150485089414
"N,N-dimethyltetradecan-1-amine",CCCCCCCCCCCCCCN(C)C,-3.9356925608,G1,5.249100000000005,79.63200000000008,1.0,0.0,1.0,13.0,0.0,0.0,0.0,0.0,3.24,109.97321641398206,2.892588645622117
1-chloropropane,CCCCl,-1.4534068203,G4,1.6352,21.011,0.0,0.0,1.0,1.0,0.0,0.0,0.0,0.0,0.0,31.772401483504435,1.9747448713915892
1-chloro-3-nitrobenzene,[O-][N+](=O)c1cccc(Cl)c1,-2.7612722995,G3,2.2482000000000006,38.106400000000015,2.0,0.0,4.0,1.0,1.0,0.0,0.0,1.0,43.14,62.38764506887844,3.069899265759275
1-(2-naphthyl)ethanone,CC(=O)c1ccc2ccccc2c1,-2.7964187192,G1,3.042400000000001,53.95250000000002,1.0,0.0,1.0,1.0,2.0,0.0,0.0,2.0,17.07,77.00447398006915,2.6860346638769905
"1,2-dichloropropane",CC(Cl)CCl,-1.6216647134,G3,1.8525,26.03499999999999,0.0,0.0,2.0,1.0,0.0,0.0,0.0,0.0,0.0,42.07566771038611,2.5395388613593903
N-ethylaniline,CCNc1ccccc1,-1.6520779355,G3,2.1184,40.60570000000001,1.0,1.0,1.0,2.0,1.0,0.0,0.0,1.0,12.03,55.71114953189822,2.61489994009295
"1,1'-oxybis(3-methylbutane)",CC(C)CCOCCC(C)C,-3.7601070667,G3,3.095200000000002,49.72900000000003,1.0,0.0,1.0,6.0,0.0,0.0,0.0,0.0,9.23,71.13727528690589,2.909205095488745
"1,2-dichloro-4-methylbenzene",Cc1ccc(Cl)c(Cl)c1,-3.7755457257,G3,3.301820000000001,41.19900000000002,0.0,0.0,2.0,0.0,1.0,0.0,0.0,1.0,0.0,64.40287768765691,3.171678030440916
"4-amino-2,5-dimethoxy-N-phenylbenzenesulfonamide",COc1cc(c(OC)cc1N)[S](=O)(=O)Nc2ccccc2,-4.0576928644,G1,2.0868,81.20890000000003,5.0,2.0,7.0,5.0,2.0,0.0,0.0,2.0,90.65,123.09600078640382,2.483415009646832
4-hydroxy-3-(3-oxo-1-phenylbutyl)-2H-chromen-2-one,CC(=O)CC(c1ccccc1)C2=C(O)Oc3ccccc3C2=O,-3.0625087471,G4,3.609600000000002,87.73180000000005,4.0,1.0,4.0,4.0,3.0,0.0,0.0,3.0,67.50999999999999,132.5520250911752,2.2586253240211427
"(4-(4-aminophenyl)(4-iminocyclohexa-2,5-dienylidene)methyl)-2-methylaniline hydrochloride",[H+].[Cl-].CC1=CC(C=CC1=N)=C(c2ccc(N)cc2)c3ccc(N)cc3,-2.1054831912,G5,1.3052699999999988,99.4665,3.0,3.0,4.0,2.0,2.0,0.0,1.0,3.0,75.89,149.33641800598704,1.5624994300002157e-06
tris(2-methylpropyl) phosphate,CC(C)CO[P](=O)(OCC(C)C)OCC(C)C,-3.0021546468,G1,4.112300000000004,69.97650000000006,4.0,0.0,5.0,9.0,0.0,0.0,0.0,0.0,44.760000000000005,105.64386064918794,4.291086823121421
methyl 2-methylbenzoate,COC(=O)c1ccccc1C,-1.7566476759,G1,1.78162,42.51850000000002,2.0,0.0,2.0,1.0,1.0,0.0,0.0,1.0,26.3,65.80129679223742,3.032662155800657
2-methylprop-1-ene,CC(C)=C,-2.3290690398,G1,1.5824,20.488,0.0,0.0,0.0,0.0,0.0,0.0,0.0,0.0,0.0,27.14447433883512,2.8030394876740514
1-(acetyloxy)but-3-en-2-yl acetate,CC(=O)OC[C@@H](OC(C)=O)C=C,-0.8176814122,G1,0.6672,42.384000000000015,4.0,0.0,4.0,4.0,0.0,0.0,0.0,0.0,52.6,71.15437745552283,3.748658078108917
3-aminophenol,Nc1cccc(O)c1,-0.6229628479,G5,0.9744,32.5192,2.0,2.0,2.0,0.0,1.0,0.0,0.0,1.0,46.25,47.56552756870569,3.077660437970554
"2-[2-ethoxy-5-(4-ethylpiperazin-1-yl)sulfonylphenyl]-5-methyl-7-propyl-1H-imidazo[5,1-f][1,2,4]triazin-4-one",CCCc1nc(C)c2n1NC(=NC2=O)c3cc(ccc3OCC)[S](=O)(=O)N4CCN(CC)CC4,-4.8438678664,G1,2.0704199999999995,129.81750000000005,8.0,1.0,11.0,8.0,3.0,1.0,1.0,4.0,112.89999999999998,199.16304001362025,1.8159231890244243
(9E)-N-[3-(dimethylamino)propyl]octadec-9-enamide,CCCCCCCC/C=C/CCCCCCCC(=O)NCCCN(C)C,-4.1492593891,G2,6.091800000000006,115.6327000000001,2.0,1.0,3.0,19.0,0.0,0.0,0.0,0.0,32.34,163.54959246622593,3.20523508815334
"1,3-dichloro-2-methylbenzene",Cc1c(Cl)cccc1Cl,-3.7919361419,G1,3.301820000000001,41.19900000000001,0.0,0.0,2.0,0.0,1.0,0.0,0.0,1.0,0.0,64.40287768765691,3.2478347337367035
cyclododecanone,O=C1CCCCCCCCCCC1,-3.8458299965,G3,3.8602000000000034,55.79400000000005,1.0,0.0,1.0,0.0,0.0,1.0,1.0,1.0,17.07,81.9093052327068,2.144560008407528
"3,7-dimethyloct-6-en-1-yn-3-ol",CC(C)=CCCC(C)(O)C#C,-1.7720804309,G1,2.117,48.12180000000002,1.0,1.0,1.0,3.0,0.0,0.0,0.0,0.0,20.23,69.12758616927005,3.736544776329117
4-methyl-3-nitrobenzoic acid,Cc1ccc(cc1[N+]([O-])=O)C(O)=O,-2.8480980227,G1,1.60142,44.79270000000001,3.0,1.0,5.0,2.0,1.0,0.0,0.0,1.0,80.44,73.77001892302977,3.267052212361692
3-amino-4-methoxybenzenesulfonic acid,COc1ccc(cc1N)[S](O)(=O)=O,-0.8997243446,G2,0.5241,47.22100000000001,4.0,2.0,6.0,2.0,1.0,0.0,0.0,1.0,89.62,75.87841717045377,3.25819087338132
"(3,4-dihydroxyphenyl)-phenylmethanone",Oc1ccc(cc1O)C(=O)c2ccccc2,-2.9226200497000003,G1,2.3288,59.64610000000003,3.0,2.0,3.0,2.0,2.0,0.0,0.0,2.0,57.53,92.6034290443934,2.3860005891578475
"2-[(E)-2-{4-[ethyl(2-hydroxyethyl)amino]phenyl}diazen-1-yl]-6-methoxy-3-methyl-1,3-benzothiazol-3-ium acetate",CCN(CCO)c1ccc(cc1)N=Nc2sc3cc(OC)ccc3[n+]2C.CC([O-])=O,-0.2262726911,G1,2.724600000000001,115.82480000000008,8.0,1.0,9.0,7.0,3.0,0.0,0.0,3.0,101.43,179.23565901258678,7.352562070404895e-07
(4R)-4-methyl-2-propyloxan-4-yl acetate (4S)-4-methyl-2-propyloxan-4-yl acetate,CCCC1C[C@](C)(CCO1)OC(C)=O.CCCC2C[C@@](C)(CCO2)OC(C)=O,-2.2047232328,G1,4.574600000000005,108.1060000000001,6.0,0.0,6.0,6.0,0.0,2.0,2.0,2.0,71.06,170.1744293947442,2.799999918285717e-07
3-(aminomethyl)heptane,CCCCC(CC)CN,-1.7134804626,G1,2.1615,42.3604,1.0,1.0,1.0,5.0,0.0,0.0,0.0,0.0,26.02,58.63373652561851,3.092246194602392
3-chloro-4-methylaniline,Cc1ccc(N)cc1Cl,-1.7531263116999998,G3,2.23062,40.60140000000001,1.0,1.0,2.0,0.0,1.0,0.0,0.0,1.0,26.02,59.43950215778796,3.171678030440915
"2-(2,4-dihydroxyphenyl)-3,5,7-trihydroxy-4H-chromen-4-one",Oc1ccc(c(O)c1)C2=C(O)C(=O)c3c(O)cc(O)cc3O2,-3.0824090581,G1,1.988,76.244,7.0,5.0,7.0,1.0,3.0,0.0,0.0,3.0,131.36,122.10766954232908,2.407728670949308
"4-[1,1-bis(4-hydroxyphenyl)ethyl]phenol",CC(c1ccc(O)cc1)(c2ccc(O)cc2)c3ccc(O)cc3,-4.086559757,G1,4.157700000000002,89.87640000000002,3.0,3.0,3.0,3.0,3.0,0.0,0.0,3.0,60.69,134.65817701700627,2.214535429019411
"2,4-dichloro-1-methylbenzene",Cc1ccc(Cl)cc1Cl,-3.8089694812,G3,3.301820000000001,41.19900000000002,0.0,0.0,2.0,0.0,1.0,0.0,0.0,1.0,0.0,64.40287768765691,3.171678030440915
"(4-methoxy-2,2-dimethyl-3a,4,6,6a-tetrahydrofuro[3,4-d][1,3]dioxol-6-yl)methyl 4-methylbenzenesulfonate",COC1OC(CO[S](=O)(=O)c2ccc(C)cc2)C3OC(C)(C)OC13,-4.1564425332,G1,1.59172,83.81180000000006,7.0,0.0,8.0,5.0,1.0,2.0,2.0,3.0,80.29,141.47129036178362,1.686881259454072
1-methoxy-2-methylbenzene,COc1ccccc1C,-2.6890833932,G1,2.00362,37.73100000000001,1.0,0.0,1.0,1.0,1.0,0.0,0.0,1.0,9.23,55.274832577797056,3.0065240073265844
"(2,4-dichlorophenyl)acetic acid",OC(=O)Cc1ccc(Cl)cc1Cl,-2.9191416399000003,G5,2.6205000000000007,47.801800000000014,1.0,1.0,4.0,2.0,1.0,0.0,0.0,1.0,37.3,79.7235756542933,2.9348021246299894
2-(chloromethyl)oxirane; 4-[2-(4-hydroxyphenyl)propan-2-yl]phenol,CC(C)(c1ccc(O)cc1)c2ccc(O)cc2.ClCC3CO3,-5.0291347649,G3,4.0477000000000025,88.80160000000004,3.0,2.0,4.0,3.0,2.0,1.0,1.0,3.0,52.99,135.68342897272123,2.985489940389552e-07
Zirconium propionate,[Zr+4].CCC([O-])=O,-2.8232791914,G3,-0.8562000000000001,15.298000000000002,2.0,0.0,3.0,1.0,0.0,0.0,0.0,0.0,40.13,55.67314869945338,0.0
4-chlorobenzonitrile,Clc1ccc(cc1)C#N,-2.749354496,G1,2.2116799999999994,36.167000000000016,1.0,0.0,2.0,0.0,1.0,0.0,0.0,1.0,23.79,58.49219114224395,3.05603839622726
1-chloro-4-nitrobenzene,[O-][N+](=O)c1ccc(Cl)cc1,-2.8118286729000004,G5,2.2482,38.106400000000015,2.0,0.0,4.0,1.0,1.0,0.0,0.0,1.0,43.14,62.38764506887844,3.003400684579818
4-(propan-2-yl)benzaldehyde,CC(C)c1ccc(C=O)cc1,-2.7852565821,G3,2.6225000000000014,45.91850000000003,1.0,0.0,1.0,2.0,1.0,0.0,0.0,1.0,17.07,67.05269367712715,2.90982279990154
4-[(2-methylprop-2-enoyl)oxy]butyl 2-methylprop-2-enoate,CC(=C)C(=O)OCCCCOC(=O)C(C)=C,-2.969024542,G1,2.0052,60.78000000000004,4.0,0.0,4.0,7.0,0.0,0.0,0.0,0.0,52.6,95.92454288092505,3.413855766899512
1-(3-chlorophenyl)propan-1-one,CCC(=O)c1cccc(Cl)c1,-1.8467055699,G1,2.9327000000000014,46.07350000000002,1.0,0.0,2.0,2.0,1.0,0.0,0.0,1.0,17.07,70.99101778961223,2.957064034225712
2-(phenoxymethyl)oxirane,C1OC1COc2ccccc2,-1.7963921827,G1,1.4641999999999995,41.67700000000003,2.0,0.0,2.0,3.0,1.0,1.0,1.0,2.0,21.76,65.74748876817132,1.8511911397161591
nonanedioic acid,OC(=O)CCCCCCCC(O)=O,-1.8944614494,G3,1.8863,47.59060000000003,2.0,2.0,4.0,8.0,0.0,0.0,0.0,0.0,74.6,77.570299647482,2.9961049979124525
"1,6-dioxacycloheptadecan-7-one",O=C1CCCCCCCCCCOCCCCO1,-4.0179591997,G1,3.850900000000003,72.56500000000005,3.0,0.0,3.0,0.0,0.0,1.0,1.0,1.0,35.53,111.2312220349104,2.113694135690367
"3,7-dimethyloctanal",CC(C)CCCC(C)CC=O,-3.8064830067,G1,3.0378000000000016,48.53400000000003,1.0,0.0,1.0,6.0,0.0,0.0,0.0,0.0,17.07,70.18525215744279,3.1618337283000217
"1,3-diphenylthiourea",S=C(Nc1ccccc1)Nc2ccccc2,-3.9716884266,G5,3.4955000000000016,72.72740000000003,1.0,2.0,3.0,2.0,2.0,0.0,0.0,2.0,24.06,100.3119440543786,1.9521941477943936
"estr-5(10)-ene-3,17-dione",C[C@]12CC[C@H]3[C@@H](CCC4=C3CCC(=O)C4)[C@@H]1CCC2=O,-4.0549767292,G3,3.841400000000003,77.17000000000004,2.0,0.0,2.0,0.0,0.0,2.0,4.0,4.0,34.14,120.55338352635827,1.6680257631301296
1-bromopropane,CCCBr,-1.7107562487,G5,1.7913,24.08499999999999,0.0,0.0,1.0,1.0,0.0,0.0,0.0,0.0,0.0,35.33668286226413,1.9747448713915892
1-chloro-4-methoxybenzene,COc1ccc(Cl)cc1,-2.779325494,G1,2.3486,38.00400000000001,1.0,0.0,2.0,1.0,1.0,0.0,0.0,1.0,9.23,59.213156690282126,2.881555877646136
Fluocortolone,C[C@@H]1C[C@H]2[C@@H]3C[C@H](F)C4=CC(=O)C=C[C@]4(C)[C@H]3[C@@H](O)C[C@]2(C)[C@H]1C(=O)CO,-3.2037371554000003,G5,2.6367000000000016,98.41460000000004,4.0,2.0,5.0,2.0,0.0,3.0,4.0,4.0,74.6,159.07755185907865,1.7725182385534797
sodium 3-[(E)-2-[4-(phenylamino)phenyl]diazen-1-yl]benzene-1-sulfonate,[Na+].[O-][S](=O)(=O)c1cccc(c1)N=Nc2ccc(Nc3ccccc3)cc2,-1.2046860906,G1,1.7537000000000005,94.7479,6.0,1.0,8.0,5.0,3.0,0.0,0.0,3.0,93.95,173.58426719247467,2.429997336078026e-06
"3-methyl-1,1-diphenylurea",CNC(=O)N(c1ccccc1)c2ccccc2,-2.9839461582,G1,3.164100000000001,69.47870000000003,1.0,1.0,3.0,2.0,2.0,0.0,0.0,2.0,32.34,100.6895995082094,2.4314397275890385
biphenyl-2-amine,Nc1ccccc1c2ccccc2,-2.8611137345,G1,2.9358000000000013,56.29040000000002,1.0,1.0,1.0,1.0,2.0,0.0,0.0,2.0,26.02,77.82838802257372,2.5360704460016144
"cyclohexane-1,4-dicarboxylic acid",OC(=O)C1CCC(CC1)C(O)=O,-0.8723707236,G1,0.9620000000000002,40.71960000000001,2.0,2.0,4.0,2.0,0.0,1.0,1.0,1.0,74.6,70.19952637955613,2.3927770801931003
2-(7-ethyl-1H-indol-3-yl)ethan-1-ol,CCc1cccc2c(CCO)c[nH]c12,-1.9153264103,G1,2.2650999999999994,58.46650000000003,1.0,2.0,2.0,3.0,2.0,0.0,0.0,2.0,36.02,83.5762302820289,2.572849270743661
"3-(1-ethoxyethoxy)-3,7-dimethylocta-1,6-diene",CCOC(C)OC(C)(CCC=C(C)C)C=C,-3.9764017843,G1,4.076600000000004,69.44000000000004,2.0,0.0,2.0,8.0,0.0,0.0,0.0,0.0,18.46,100.3313829096307,4.192440364597279
diphenylmethanone,O=C(c1ccccc1)c2ccccc2,-3.882202908,G3,2.917600000000001,56.316500000000026,1.0,0.0,1.0,2.0,2.0,0.0,0.0,2.0,17.07,83.01496154000138,2.348637604509715
1-cyclohexylethyl butanoate,CCCC(=O)OC(C)C1CCCCC1,-3.9207588975,G1,3.2985000000000024,57.03700000000005,2.0,0.0,2.0,4.0,0.0,1.0,1.0,1.0,26.3,87.02285046221367,2.248551121515852
"2-ethyl-3-hydroxy-2-[2-(6-methoxy-3,4-dihydronaphthalen-1(2H)-ylidene)ethyl]cyclopentanone",CCC1(CC=C2CCCc3cc(OC)ccc23)C(O)CCC1=O,-4.1227687236,G1,3.925200000000003,91.49780000000004,3.0,1.0,3.0,4.0,1.0,1.0,2.0,3.0,46.53,137.90862846355344,1.8836686658511983
butylbenzene,CCC(C)c1ccccc1,-3.7586078484,G5,3.2001000000000017,45.14800000000003,0.0,0.0,0.0,2.0,1.0,0.0,0.0,1.0,0.0,62.89117157708339,2.746978188530898
"sodium 1-amino-4-[(3-acetamidophenyl)amino]-9,10-dioxo-9,10-dihydroanthracene-2-sulfonate",[Na+].CC(=O)Nc1cccc(Nc2cc(c(N)c3C(=O)c4ccccc4C(=O)c23)[S]([O-])(=O)=O)c1,-4.3079108614,G3,-0.3457000000000001,116.153,8.0,3.0,11.0,4.0,3.0,0.0,1.0,4.0,158.48999999999998,210.96574583279497,3.0624959939637974e-06
1-methyl-1-(4-methylcyclohex-3-en-1-yl)ethyl acetate,CC(=O)OC(C)(C)C1CCC(=CC1)C,-3.931170339,G1,3.0745000000000013,56.94300000000004,2.0,0.0,2.0,2.0,0.0,0.0,1.0,1.0,26.3,86.3332474300294,2.5988300021762742
"3,7,11-trimethyldodeca-1,6,10-trien-3-ol,mixed isomers",CC(C)=CCC\C(C)=C\CCC(C)(O)C=C,-3.9853522661,G3,4.3963000000000045,72.47680000000004,1.0,1.0,1.0,7.0,0.0,0.0,0.0,0.0,20.23,100.5738652850253,3.877113806700416
6-[(2-methylprop-2-enoyl)oxy]hexyl 2-methylprop-2-enoate,CC(=C)C(=O)OCCCCCCOC(=O)C(C)=C,-4.0436629248,G1,2.785400000000001,70.01400000000004,4.0,0.0,4.0,9.0,0.0,0.0,0.0,0.0,52.6,108.65442710971826,3.3162010440941296
4-(trifluoromethyl)aniline,Nc1ccc(cc1)C(F)(F)F,-2.8473301434,G1,2.2876000000000003,35.856400000000015,1.0,1.0,4.0,0.0,1.0,0.0,0.0,1.0,26.02,61.63284213968499,2.993754788259927
benzyltriethylazanium chloride,[Cl-].CC[N+](CC)(CC)Cc1ccccc1,-0.0072656636,G3,0.0671000000000014,62.02940000000005,0.0,0.0,2.0,5.0,1.0,0.0,0.0,1.0,0.0,100.10889632962136,1.959999277600274e-06
disodium decanedioate,[Na+].[Na+].[O-]C(=O)CCCCCCCCC([O-])=O,-3.0410647254,G2,-6.384999999999998,46.95000000000002,4.0,0.0,6.0,9.0,0.0,0.0,0.0,0.0,80.25999999999999,140.7620410073025,-8.449997543000735e-07
2-(2-butoxyethoxy)ethyl 2-methylprop-2-enoate,CCCCOCCOCCOC(=O)C(C)=C,-2.0159485066,G3,1.939,62.319000000000045,4.0,0.0,4.0,10.0,0.0,0.0,0.0,0.0,44.760000000000005,97.5661690425724,3.096935057347562
"4-[1,1,1,3,3,3-hexafluoro-2-(4-hydroxyphenyl)propan-2-yl]phenol",Oc1ccc(cc1)C(c2ccc(O)cc2)(C(F)(F)F)C(F)(F)F,-3.1795029693,G1,4.5085000000000015,69.1036,2.0,2.0,8.0,2.0,2.0,0.0,0.0,2.0,40.46,126.16500359070024,2.8616851652637383
1-(naphthalen-1-yl)ethan-1-one,CC(=O)c1cccc2ccccc12,-2.8846346488,G1,3.042400000000001,53.95250000000003,1.0,0.0,1.0,1.0,2.0,0.0,0.0,2.0,17.07,77.00447398006915,2.83097565836767
4-(propan-2-yl)aniline,CC(C)c1ccc(N)cc1,-1.7858311962,G1,2.3922000000000008,44.943400000000025,1.0,1.0,1.0,1.0,1.0,0.0,0.0,1.0,26.02,61.8661201596995,2.893762783606677
4-methoxyaniline,COc1ccc(N)cc1,-0.7480293677,G3,1.2774,37.4064,2.0,1.0,2.0,1.0,1.0,0.0,0.0,1.0,35.25,54.24978116041317,2.881555877646136
pentan-1-ol,CCCCCO,-0.6027996358,G3,1.1689,26.61079999999999,1.0,1.0,1.0,3.0,0.0,0.0,0.0,0.0,20.23,38.99325323761199,2.3390923149762908
2-methoxy-5-nitroaniline,COc1ccc(cc1N)[N+]([O-])=O,-1.8832793564,G2,1.1856,44.06080000000001,4.0,1.0,5.0,2.0,1.0,0.0,0.0,1.0,78.38999999999999,68.90275688291297,3.0981803500525973
prop-2-en-1-yl 2-methylprop-2-enoate,CC(=C)C(=O)OCC=C,-1.7584817871,G3,1.2917,35.97,2.0,0.0,2.0,3.0,0.0,0.0,0.0,0.0,26.3,54.824764979391325,3.5084051218843637
"1,1,2,2,3,3,4,4-octafluoro-1,4-diiodobutane",FC(F)(I)C(F)(F)C(F)(F)C(F)(F)I,-3.314476262,G1,4.3126,47.828,0.0,0.0,10.0,3.0,0.0,0.0,0.0,0.0,0.0,99.68203683651652,5.300082077607573
"2,6-di-tert-butyl-4-(hydroxymethyl)phenol",CC(C)(C)c1cc(CO)cc(c1O)C(C)(C)C,-4.0127821042,G1,3.4795000000000025,71.42960000000005,2.0,2.0,2.0,1.0,1.0,0.0,0.0,1.0,40.46,104.30434965345846,3.5327462243952046
[2-(3-methylbutoxy)ethyl]benzene,CC(C)CCOCCc1ccccc1,-3.9337357827,G1,3.291800000000002,60.42000000000005,1.0,0.0,1.0,6.0,1.0,0.0,0.0,1.0,9.23,87.09954314978012,2.047929619325098
2-hydroxynaphthalene-1-carbaldehyde,Oc1ccc2ccccc2c1C=O,-3.8935675896,G1,2.3579,51.00030000000002,2.0,1.0,2.0,1.0,2.0,0.0,0.0,2.0,37.3,75.43376561786856,2.9117844920054865
"5-nitropyrimidine-2,4,6-triamine",Nc1nc(N)c(N=O)c(N)n1,-3.8454729507,G1,-0.3789000000000002,40.72419999999999,7.0,3.0,7.0,1.0,1.0,0.0,0.0,1.0,133.26999999999998,61.58510315665862,3.3573214474517448
"1,3-dichloroprop-1-ene",ClC\C=C/Cl,-1.706753006,G5,1.9777,25.712999999999997,0.0,0.0,2.0,1.0,0.0,0.0,0.0,0.0,0.0,41.386064678201855,2.622415807990217
4-[4-[[4-chloro-3-(trifluoromethyl)phenyl]carbamoylamino]phenoxy]-N-methylpyridine-2-carboxamide,CNC(=O)c1cc(Oc2ccc(NC(=O)Nc3ccc(Cl)c(c3)C(F)(F)F)cc2)ccn1,-6.6672950838,G1,5.549700000000002,113.2386,4.0,3.0,11.0,5.0,3.0,0.0,0.0,3.0,92.35,185.11105638623687,1.6244376001208218
2-methoxy-4-(methoxymethyl)phenol,COCc1ccc(O)c(OC)c1,-1.8934476814,G1,1.5472,45.37180000000003,3.0,1.0,3.0,3.0,1.0,0.0,0.0,1.0,38.69,71.54755367389656,2.8886510104905314