Name,SMILES,Solubility,Group,MolLogP,MolMR,NumHAcceptors,NumHDonors,NumHeteroatoms,NumRotatableBonds,NumAromaticRings,NumSaturatedRings,NumAliphaticRings,RingCount,TPSA,LabuteASA,BalabanJ
"Benzenesulfonic acid, mono-C11-13-branched alkyl derivs., sodium salts",[Na+].CCCCC(CC)CCCCCc1ccc(cc1)[S]([O-])(=O)=O,-0.0969056512,G1,1.913999999999999,89.88320000000007,3.0,0.0,5.0,11.0,1.0,0.0,0.0,1.0,57.2,163.85274412500888,4.839994607806221e-06
dicaesium(1+) ion carbonate,[Cs+].[Cs+].[O-]C([O-])=O,0.9300687552,G1,-8.439,5.396,3.0,0.0,5.0,0.0,0.0,0.0,0.0,0.0,63.19,153.09881892225653,-4.4999999250000016e-08
pivalic acid,CC(C)(C)C(O)=O,-0.5635618856,G3,1.1171,27.090799999999987,1.0,1.0,2.0,0.0,0.0,0.0,0.0,0.0,37.3,43.15477533765576,3.7911184170869663
"1-(2-hydroxyethyl)-2,2,6,6-tetramethylpiperidin-4-ol",CC1(C)CC(O)CC(C)(C)N1CCO,-0.8598205529,G1,0.9926,57.19060000000005,3.0,2.0,3.0,2.0,0.0,1.0,1.0,1.0,43.7,86.7311421928618,2.847521437390204
diethyl(prop-2-yn-1-yl)amine,CCN(CC)CC#C,-0.6020131225,G1,0.9614,36.621,1.0,0.0,1.0,3.0,0.0,0.0,0.0,0.0,3.24,51.687962776271846,3.248371276696983
cobalt(2+) hydrogen citrate,[Co++].OC(=O)CC(O)(CC([O-])=O)C([O-])=O,-0.954573972,G1,-3.920399999999999,31.833599999999997,6.0,2.0,8.0,5.0,0.0,0.0,0.0,0.0,137.79,88.54549639019051,0.0
barium(2+) ion dichloride,O.O.[Cl-].[Cl-].[Ba++],0.0418928153,G3,-8.0222,12.981599999999998,0.0,0.0,5.0,0.0,0.0,0.0,0.0,0.0,63.0,83.2123116801542,-0.0
"2-bromo-2-nitropropane-1,3-diol",OCC(Br)(CO)[N+]([O-])=O,0.1271308568,G5,-0.6611,32.824,4.0,2.0,6.0,3.0,0.0,0.0,0.0,0.0,83.6,59.57812608915594,4.090340515801205
copper(+1) cation sulfide,[SH--].[Cu+].[Cu+],-4.2045730411,G1,-0.2751,8.76,0.0,0.0,3.0,0.0,0.0,0.0,0.0,0.0,0.0,47.75257275931267,-0.0
2-methyl-1H-imidazole,Cc1[nH]ccn1,0.5121363664999999,G1,0.7181199999999999,23.324699999999996,1.0,1.0,2.0,0.0,1.0,0.0,0.0,1.0,28.68,36.22515363585439,3.049648321313926
Sodium trimetaphosphate,[Na+].[Na+].[Na+].[O-][P]1(=O)O[P]([O-])(=O)O[P]([O-])(=O)O1,-0.062309467,G1,-10.533,26.0745,9.0,0.0,15.0,0.0,0.0,1.0,1.0,1.0,148.08,150.98084559657352,-4.79999961800003e-07
oxoselane oxide,O=[Se]=O,1.3647745033,G1,-0.6184000000000001,7.126999999999999,2.0,0.0,3.0,0.0,0.0,0.0,0.0,0.0,34.14,23.39474668114611,3.2659863237109046
"1,3-dioxepane",C1CCOCOC1,0.4107896597,G3,0.7709,26.00499999999999,2.0,0.0,2.0,0.0,0.0,1.0,1.0,1.0,18.46,43.42027879090051,2.0416666666666665
4-methylpent-3-en-2-one,CC(C)=CC(C)=O,-0.560826234,G3,1.5416,30.111999999999988,1.0,0.0,1.0,1.0,0.0,0.0,0.0,0.0,17.07,44.035880667672096,3.679228031962392
"disodium 3-[(E)-2-(5-chloro-2-hydroxyphenyl)diazen-1-yl]-4,5-dihydroxynaphthalene-2,7-disulfonate",[Na+].[Na+].Oc1ccc(Cl)cc1N\N=C/2C(=O)c3c(O)cc(cc3C=C2[S]([O-])(=O)=O)[S]([O-])(=O)=O,-1.2898086582,G1,-4.7861999999999965,102.2492,11.0,3.0,16.0,4.0,2.0,0.0,1.0,3.0,196.32,230.8054793839598,2.55999846263429e-06
C.i.Basic Violet 11,[Cl-].CCOC(=O)c1ccccc1c2c3ccc(cc3[o+]c4cc(ccc24)N(CC)CC)N(CC)CC,-1.2801897062,G1,4.407200000000005,146.64149999999984,4.0,0.0,6.0,9.0,4.0,0.0,0.0,4.0,44.080000000000005,219.61883439391,3.609994677079128e-06
4-chlorophenol,Oc1ccc(Cl)cc1,-0.6876597172,G5,2.0456,33.1168,1.0,1.0,2.0,0.0,1.0,0.0,0.0,1.0,20.23,52.52890309857465,3.0324555320336755
methacrylonitrile,CC(=C)C#N,-0.4067085165999999,G5,1.08608,20.426999999999992,1.0,0.0,1.0,0.0,0.0,0.0,0.0,0.0,23.79,31.537054020303835,3.348800763644439
2-methylphenol,Cc1ccccc1O,-0.6190130172999999,G3,1.70062,32.843799999999995,1.0,1.0,1.0,0.0,1.0,0.0,0.0,1.0,20.23,48.59057898608958,3.134861511345448
dilithium(1+) ion sulfate,[Li+].[Li+].[O-][S]([O-])(=O)=O,0.3921242805,G5,-7.329999999999999,10.4746,4.0,0.0,7.0,0.0,0.0,0.0,0.0,0.0,80.25999999999999,65.60131360359244,-7.999999835000003e-08
dimethyl[2-[(2-methyl-1-oxoallyl)oxy]ethyl](3-sulphopropyl)ammonium hydroxide,CC(=C)C(=O)OCC[N+](C)(C)CCC[S]([O-])(=O)=O,0.9627399696,G1,0.1174000000000003,66.79660000000004,5.0,0.0,7.0,8.0,0.0,0.0,0.0,0.0,83.5,108.57257763600133,3.937287459803744
2-phenoxyethan-1-ol,OCCOc1ccccc1,-0.742461176,G5,1.0577,39.02280000000002,2.0,1.0,2.0,3.0,1.0,0.0,0.0,1.0,29.46,60.06906632999306,2.4265223465879537
potassium hydrogen oxalate,[K+].OC(=O)C([O-])=O,-0.7096904801,G1,-5.1751000000000005,12.6428,3.0,1.0,5.0,0.0,0.0,0.0,0.0,0.0,77.43,81.93826954206831,0.0
N'-acetylacetohydrazide,CC(=O)NNC(C)=O,0.3286681761,G3,-0.8264,27.633399999999995,2.0,2.0,4.0,0.0,0.0,0.0,0.0,0.0,58.2,47.22698195855797,3.1818458670936187
ethyl 2-cyclohexylpropanoate,CCOC(=O)C(C)C1CCCCC1,-3.3274567494,G1,2.765900000000001,52.37200000000004,2.0,0.0,2.0,3.0,0.0,1.0,1.0,1.0,26.3,80.65790834781706,2.352919438832615
calcium bis((2S)-5-oxopyrrolidine-2-carboxylate),[Ca++].[O-]C(=O)C1CCC(=O)N1,0.1651478476,G1,-2.3659,31.925699999999992,3.0,1.0,5.0,1.0,0.0,1.0,1.0,1.0,69.22999999999999,87.97609646300252,8.099998654500228e-07
disodium oxybis[methylbenzenesulphonate],[Na+].[Na+].Cc1cc(Oc2cc(C)cc(c2)[S]([O-])(=O)=O)cc(c1)[S]([O-])(=O)=O,-0.2207961953999999,G1,-4.088059999999993,78.35840000000003,7.0,0.0,11.0,4.0,2.0,0.0,0.0,2.0,123.63,190.41599804936632,2.8799988590004622e-06
2-(dimethylamino)ethyl acrylate,CN(C)CCOC(=O)C=C,0.2243106848,G3,0.2771999999999999,39.71,3.0,0.0,3.0,4.0,0.0,0.0,0.0,0.0,29.54,61.27420168177895,3.1948650246270067
"4-methyl-1,3-dioxolan-2-one",CC1COC(=O)O1,0.371232292,G3,0.5417000000000001,21.89499999999999,3.0,0.0,3.0,0.0,0.0,1.0,1.0,1.0,35.53,41.21685877654767,2.39706714269016
(4-methoxyphenyl)methanol,COc1ccc(CO)cc1,-0.7447271456,G4,1.1874999999999998,38.91680000000001,2.0,1.0,2.0,2.0,1.0,0.0,0.0,1.0,29.46,60.06906632999306,2.7972512629697874
aniline; formaldehyde,Nc1ccccc1.C=O,-2.0040922179,G5,1.0839,37.975400000000015,2.0,1.0,2.0,0.0,1.0,0.0,0.0,1.0,43.09,54.30358918447927,2.914285599204087e-07
1-ethynylcyclohexanol,OC1(CCCCC1)C#C,-0.7048960629000001,G1,1.3148,36.8678,1.0,1.0,1.0,0.0,0.0,1.0,1.0,1.0,20.23,56.08147381913186,2.489256685875949
"1,3-dioxo-1,3-dihydro-2-benzofuran-5-carboxylic acid",OC(=O)c1ccc2C(=O)OC(=O)c2c1,-0.8961963145999999,G3,0.6954,43.1473,4.0,1.0,5.0,1.0,1.0,0.0,1.0,2.0,80.66999999999999,77.91274359099175,2.6076190147194995
caesium(1+) ion nitrate,[Cs],0.255764198,G1,-0.3808,5.754,0.0,0.0,1.0,0.0,0.0,0.0,0.0,0.0,0.0,66.67326690489932,0.0
"3-hydroxy-2,2-dimethylpropyl 3-hydroxy-2,2-dimethylpropanoate",CC(C)(CO)COC(=O)C(C)(C)CO,0.0682018165,G3,0.5665999999999998,52.692600000000034,4.0,2.0,4.0,5.0,0.0,0.0,0.0,0.0,66.76,84.88726489134169,4.098442002267489
"1,3-diaminourea",NNC(=O)NN,0.4145585536,G1,-1.9670000000000003,20.04220000000001,3.0,4.0,5.0,0.0,0.0,0.0,0.0,0.0,93.17,34.62055092958478,2.9881608821342693
pentan-2-ol,CCCC(C)O,-0.2541408245,G3,1.1673,26.58879999999999,1.0,1.0,1.0,2.0,0.0,0.0,0.0,0.0,20.23,38.99325323761199,2.6272148478988635
"sodium 1-(3,4-dihydro-6-methyl-2,4-dioxo-2H-pyran-3-ylidene)ethanolate",[Na+].CC(=O)[C-]1C(=O)OC(=CC1=O)C,0.0845613317,G1,-2.76608,41.58250000000001,4.0,0.0,5.0,1.0,1.0,0.0,0.0,1.0,64.35,96.22901220953908,1.4399997042000626e-06
3-methylphenol,Cc1cccc(O)c1,-0.662918503,G3,1.7006199999999998,32.843799999999995,1.0,1.0,1.0,0.0,1.0,0.0,0.0,1.0,20.23,48.59057898608958,3.077660437970554
methanethiol,CS,-0.3148794359,G3,0.546,14.910000000000002,1.0,1.0,1.0,0.0,0.0,0.0,0.0,0.0,0.0,19.89431769123128,1.0
2-propyloxirane,CCCC1CO1,-0.57344678,G1,1.1853,24.64799999999999,1.0,0.0,1.0,2.0,0.0,1.0,1.0,1.0,12.53,38.30673356139363,1.8762858948376275
potassium difluorodihydroxyboranuide,[K+].O[B-](O)(F)F,-0.724347118,G5,-3.6504,12.4076,2.0,2.0,6.0,0.0,0.0,0.0,0.0,0.0,40.46,76.04297620220316,0.0
sodium 5-[[4-acetamido-2-(trifluoromethyl)phenyl]azo]-6-amino-4-hydroxynaphthalene-2-sulphonate,[Na+].CC(=O)Nc1ccc(NNC2=C3C(=O)C=C(C=C3C=CC2=N)[S]([O-])(=O)=O)c(c1)C(F)(F)F,-1.3288181975,G1,-0.6338300000000001,107.269,8.0,4.0,14.0,5.0,1.0,0.0,2.0,3.0,151.28,207.5723357828002,3.853327503475775e-06
benzoate; diaminomethylideneazanium,N[C+](N)N.[O-]C(=O)c1ccccc1,0.0050162556,G1,-1.640409999999999,46.57770000000001,5.0,3.0,5.0,1.0,1.0,0.0,0.0,1.0,118.19,76.14254644509734,3.0999999042847253e-07
sodium 2-phenoxyacetate,[Na+].[O-]C(=O)COc1ccccc1,0.1085957051,G1,-3.180699999999997,36.94400000000001,3.0,0.0,4.0,3.0,1.0,0.0,0.0,1.0,49.36,92.6439880527488,1.20999969337508e-06
2-chlorophenol,Oc1ccccc1Cl,-0.7538392019,G5,2.0456000000000003,33.1168,1.0,1.0,2.0,0.0,1.0,0.0,0.0,1.0,20.23,52.52890309857465,3.134861511345448
"4-bromo-1,2-dichlorobenzene",Clc1ccc(Br)cc1Cl,-1.0114935501,G1,3.755900000000001,44.16200000000001,0.0,0.0,3.0,0.0,1.0,0.0,0.0,1.0,0.0,71.90548317890166,3.171678030440915
butyldimethylamine,CCCC[NH+](C)C,-0.6670324644,G1,-0.0689999999999995,32.58569999999998,0.0,1.0,1.0,3.0,0.0,0.0,0.0,0.0,4.44,46.32379527001596,2.678257743164726
2-[1-(aminomethyl)cyclohexyl]acetic acid hydrochloride,[H+].[Cl-].NCC1(CCCCC1)CC(O)=O,0.0190211463,G5,-1.513199999999998,47.93720000000003,2.0,2.0,4.0,3.0,0.0,1.0,1.0,1.0,63.32,86.58649496077065,0.0
guanidine hydrochloride,[H+].[Cl-].NC(N)=N,1.3522850438999998,G1,-4.04493,17.213500000000003,1.0,3.0,4.0,0.0,0.0,0.0,0.0,0.0,75.89,37.74227504316472,-4.4999999250000016e-08
"ethane-1,2-diyl bis(3-oxobutanoate)",CC(=O)CC(=O)OCCOC(=O)CC(C)=O,-0.0337559002999999,G1,0.0310000000000001,52.51400000000003,6.0,0.0,6.0,7.0,0.0,0.0,0.0,0.0,86.74000000000001,92.89690891658783,3.528183937290597
sodium 4-aminobenzene-1-sulfonate,[Na+].Nc1ccc(cc1)[S]([O-])(=O)=O,0.0379554154,G1,-2.8230999999999984,38.817600000000006,4.0,1.0,6.0,1.0,1.0,0.0,0.0,1.0,83.22,92.81332944926226,1.2099997657000466e-06
"1,3,5-trioxane",C1OCOCO1,0.3717171259,G3,-0.0776999999999999,17.855999999999998,3.0,0.0,3.0,0.0,0.0,1.0,1.0,1.0,27.69,35.803939791614184,2.0
manganese(2+) ion hydrogen phosphate,[Mn++].O[P]([O-])([O-])=O,0.1455471695,G1,-2.1951,9.8253,3.0,1.0,6.0,0.0,0.0,0.0,0.0,0.0,83.41999999999999,44.90224111671682,0.0
zinc(2+) ion sulfate,O.[Zn++].[O-][S]([O-])(=O)=O,0.0702954323,G1,-2.1652,14.0884,4.0,0.0,7.0,0.0,0.0,0.0,0.0,0.0,111.76,53.37026402270683,-7.999999835000003e-08
disodium oxosilanebis(olate),[Na+].[Na+].[O-][Si]([O-])=O,0.2356352551,G1,-8.8696,6.440499999999999,3.0,0.0,6.0,0.0,0.0,0.0,0.0,0.0,63.19,81.24068428325154,-4.4999999250000016e-08
"sodium 2-{2-[(2,6-dichlorophenyl)amino]phenyl}acetate",[Na+].[O-]C(=O)Cc1ccccc1Nc2c(Cl)cccc2Cl,-1.1742318477,G1,0.0334000000000021,74.89770000000003,3.0,1.0,6.0,4.0,2.0,0.0,0.0,2.0,52.16,148.74393166667733,1.9999988342506994e-06
"2-ethyl-2-{[2-ethyl-3-hydroxy-2-(hydroxymethyl)propoxy]methyl}propane-1,3-diol",CCC(CO)(CO)COCC(CC)(CO)CO,-1.076302279,G3,-0.2350000000000002,64.61020000000006,5.0,4.0,5.0,10.0,0.0,0.0,0.0,0.0,90.15,103.04409452448316,4.276302630183746
methyl 3-sulfanylpropanoate,COC(=O)CCS,-0.7575876082999999,G1,0.4792999999999999,30.48599999999999,3.0,1.0,3.0,2.0,0.0,0.0,0.0,0.0,26.3,48.26421136397174,3.002590528674132
sodium 4-[(4-methyl-3-nitrobenzoyl)amino]benzenesulfonate,[Na+].Cc1ccc(cc1[N+]([O-])=O)C(=O)Nc2ccc(cc2)[S]([O-])(=O)=O,-1.232035998,G1,-0.9363799999999988,80.19180000000003,6.0,1.0,10.0,4.0,2.0,0.0,0.0,2.0,129.44,159.62477719325844,2.879997446402329e-06
(4-methyl-1H-imidazol-5-yl)methanol,Cc1[nH]cnc1CO,0.2683337666,G1,0.2104199999999999,29.24749999999999,2.0,2.0,3.0,1.0,1.0,0.0,0.0,1.0,48.91,47.384329502447,2.922518308363087
potassium dihydrogenorthophosphate,[K+].O[P](O)([O-])=O,0.1842562687,G1,-4.5566,12.0441,2.0,2.0,6.0,0.0,0.0,0.0,0.0,0.0,80.59,77.22918553985866,0.0
prop-2-enal,C=CC=O,0.5693792548,G3,0.3712999999999999,16.261,1.0,0.0,1.0,1.0,0.0,0.0,0.0,0.0,17.07,24.94105432448228,2.7320508075688776
cerium(+3) cation; hydrogen sulfate; sulfate; tetrahydrate,O.O.O.O.[Ce+3].O[S]([O-])(=O)=O.[O-][S]([O-])(=O)=O,-0.2918169735,G1,-5.6321999999999965,37.25580000000001,7.0,1.0,15.0,0.0,0.0,0.0,0.0,0.0,283.69,118.44965855557304,-1.2799999947199998e-08
ammonium perchlorate,[NH4+].[O-][Cl](=O)(=O)=O,0.2436628357999999,G1,-4.3798,5.9848,4.0,1.0,6.0,0.0,0.0,0.0,0.0,0.0,128.74,36.14765255313623,0.0
2-methylprop-2-enamide,CC(=C)C(N)=O,0.3753911904,G3,0.0478000000000001,24.008399999999995,1.0,1.0,2.0,1.0,0.0,0.0,0.0,0.0,43.09,36.6458871358916,3.5677034550432034
2-(methylamino)-1-phenylpropan-1-ol hydrochloride,[Cl-].CN[C@@H](C)[C@H](O)c1ccccc1.[H+],-0.003669443,G1,-1.5555999999999983,51.03550000000004,2.0,2.0,3.0,3.0,1.0,0.0,0.0,1.0,32.26,86.87315913493241,0.0
sodium 3-nitrobenzene-1-sulfonate,[Na+].[O-][N+](=O)c1cccc(c1)[S]([O-])(=O)=O,-0.0514554578,G4,-2.4970999999999988,41.05960000000002,5.0,0.0,8.0,2.0,1.0,0.0,0.0,1.0,100.34,102.12641447474932,1.6899995544251203e-06
"2,6,6-trimethylcyclohex-2-ene-1,4-dione",CC1=CC(=O)CC(C)(C)C1=O,-0.8779041501,G1,1.5008,42.16900000000002,2.0,0.0,2.0,0.0,0.0,0.0,1.0,1.0,34.14,66.28639795737645,3.054290082931889
2-[4-(2-hydroxyethoxy)but-2-ynoxy]ethanol,OCCOCC#CCOCCO,0.7589618218,G1,-0.9924000000000002,43.58560000000002,4.0,2.0,4.0,6.0,0.0,0.0,0.0,0.0,58.92,72.10862918387086,3.0081985082069003
"2-hydroxy-3,5-dinitrobenzoic acid",OC(=O)c1cc(cc(c1O)[N+]([O-])=O)[N+]([O-])=O,-1.057125752,G1,0.9067999999999998,48.3749,6.0,2.0,9.0,3.0,1.0,0.0,0.0,1.0,143.81,86.85228628332895,3.5727545380551327
2-phenylethan-1-ol,OCCc1ccccc1,-0.7859239136,G5,1.2214,37.23180000000001,1.0,1.0,1.0,2.0,1.0,0.0,0.0,1.0,20.23,54.95552110048619,2.61489994009295
ethenyl acetate,CC(=O)OC=C,-0.6339227122,G1,0.693,21.96299999999999,2.0,0.0,2.0,1.0,0.0,0.0,0.0,0.0,26.3,36.41954166838576,3.046489080910934
salicylonitrile,Oc1ccccc1C#N,-0.7749656265,G5,1.26388,32.8218,2.0,1.0,2.0,0.0,1.0,0.0,0.0,1.0,44.02,52.9831586675583,3.199326438626795
"sodium 1-amino-4-bromo-9,10-dioxo-9,10-dihydroanthracene-2-sulfonate",[Na+].Nc1c(cc(Br)c2C(=O)c3ccccc3C(=O)c12)[S]([O-])(=O)=O,-1.3055373023,G1,-1.2851999999999997,79.8246,6.0,1.0,9.0,1.0,2.0,0.0,1.0,3.0,117.36,161.78506853631924,1.919998833867396e-06
trimethylsilane,C[Si](C)C,-0.5634276852000001,G2,1.3705999999999998,23.34599999999999,0.0,0.0,1.0,0.0,0.0,0.0,0.0,0.0,0.0,29.44679712080307,2.3237900077244498
"2-benzofuran-1,3-dione; 2-(2-hydroxyethoxy)ethanol",OCCOCCO.O=C1OC(=O)c2ccccc12,-1.4052404634,G1,-0.0152000000000001,61.17860000000004,6.0,2.0,6.0,4.0,1.0,0.0,1.0,2.0,93.06,103.75965796936994,2.0337661869874363e-07
benzoic acid,OC(=O)c1ccccc1,-1.619929844,G5,1.3848,33.4013,1.0,1.0,2.0,1.0,1.0,0.0,0.0,1.0,37.3,52.75210108613335,2.981454614041131
"6-hydroxy-1,4-dihydropyrimidin-4-one",OC1=CC(=O)NC=N1,-1.5871611222,G5,-0.5245000000000002,26.5225,3.0,2.0,4.0,0.0,1.0,0.0,0.0,1.0,65.97999999999999,44.82645493362977,3.277417459528498
benzyl formate,O=COCc1ccccc1,-1.6731198028999998,G1,1.3596,37.295000000000016,2.0,0.0,2.0,3.0,1.0,0.0,0.0,1.0,26.3,59.43635467784082,2.4987708532837547
1-ethoxybutane,CCCCOCC,-1.5499606595,G1,1.823,31.400999999999986,1.0,0.0,1.0,4.0,0.0,0.0,0.0,0.0,9.23,45.67750682931947,2.447472887876344
"1,1,3,3-tetramethylbutyl hydroperoxide",CCOC(=O)C(=N/Nc1ccc(cc1)[N+]([O-])=O)/C(=O)C2=NN3C(=NC(=O)c4ccccc34)S2,-2.2216330999,G1,2.4263000000000003,119.7576,12.0,1.0,13.0,7.0,4.0,0.0,0.0,4.0,158.15999999999997,187.83804112697416,1.718091456638806
1-carbamimidamido-N-(2-methylphenyl)methanimidamide,Cc1ccccc1N=C(N)N=C(N)N,-1.8422414993,G1,0.2146200000000002,58.2712,1.0,3.0,5.0,1.0,1.0,0.0,0.0,1.0,102.78,82.33654652544519,2.9777358315168203
2-(5-ethenyl-5-methyloxolan-2-yl)propan-2-ol,CC(C)(O)C1CCC(C)(O1)C=C,-1.7997284582,G1,1.881,49.006800000000034,2.0,1.0,2.0,2.0,0.0,1.0,1.0,1.0,29.46,74.23607485338843,2.625476627283832
N-(2-methylphenyl)-3-oxobutanamide,CC(=O)CC(=O)Nc1ccccc1C,-1.8501922609,G3,1.91262,55.106700000000025,2.0,1.0,3.0,3.0,1.0,0.0,0.0,1.0,46.17,83.12902007517556,2.649628786208871
[1-(carbamoylamino)-2-methylpropyl]urea,CC(C)C(NC(N)=O)NC(N)=O,-1.8096943587,G3,-0.694899999999999,44.06419999999999,2.0,4.0,6.0,3.0,0.0,0.0,0.0,0.0,110.23999999999998,70.66651156114163,4.0396960957048975
"2-Chloro-1,1-difluoroethane",FC(F)CCl,-0.9229632085,G1,1.4903,16.724,0.0,0.0,3.0,1.0,0.0,0.0,0.0,0.0,0.0,33.7385301749603,2.5395388613593903
"2,2'-(1,3-phenylene)dipropan-2-ol",CC(C)(O)c1cccc(c1)C(C)(C)O,-1.8635330455,G3,2.1414000000000004,56.931600000000046,2.0,2.0,2.0,2.0,1.0,0.0,0.0,1.0,40.46,85.20952331026862,3.148163892365612
2-ethyl-6-methylaniline,CCc1cccc(C)c1N,-1.7061271762,G3,2.13962,44.96940000000002,1.0,1.0,1.0,1.0,1.0,0.0,0.0,1.0,26.02,61.86612015969951,3.14303948130643
calcium sulfate,[Ca++].[O-][S]([O-])(=O)=O,-1.715687645,G5,-1.7188,16.2286,4.0,0.0,6.0,0.0,0.0,0.0,0.0,0.0,80.25999999999999,65.1219505469518,0.0
N-(4-methoxyphenyl)-3-oxobutanamide,COc1ccc(NC(=O)CC(C)=O)cc1,-1.9014771833,G1,1.6127999999999998,56.92170000000002,3.0,1.0,4.0,4.0,1.0,0.0,0.0,1.0,55.4,88.24256530468249,2.5685736527852465
"2-methyl-4-phenyl-1,3-dioxolane",CC1OCC(O1)c2ccccc2,-1.805450609,G1,2.1205,45.68200000000003,2.0,0.0,2.0,1.0,1.0,1.0,1.0,2.0,18.46,72.11243088256793,2.113241499000559
3-methyl-5-propylcyclohex-2-en-1-one,CCCC1CC(=CC(=O)C1)C,-1.7725870938,G1,2.711900000000001,46.39600000000003,1.0,0.0,1.0,2.0,0.0,0.0,1.0,1.0,17.07,68.4898179717293,2.4987822319247064
4-cyanophenyl acetate,CC(=O)Oc1ccc(cc1)C#N,-1.7990172934,G1,1.48358,42.46600000000002,3.0,0.0,3.0,1.0,1.0,0.0,0.0,1.0,50.09,70.19387647370614,2.795385187635226
"(2S)-2-(1,3-dioxoisoindol-2-yl)pentanedioic acid",OC(=O)CC[C@H](N1C(=O)c2ccccc2C1=O)C(O)=O,-1.4463316859,G1,0.6006000000000002,65.23560000000002,4.0,2.0,7.0,5.0,1.0,0.0,1.0,2.0,111.98000000000002,112.97455634151449,2.3210892317941423
1-Methyl-4-propan-2-ylcyclohexene,CC(C)C1CCC(=CC1)C.CC(C)C2CCC(=CC2)C,-5.495255435900001,G1,6.777600000000007,91.87200000000009,0.0,0.0,0.0,2.0,0.0,0.0,2.0,2.0,0.0,127.28811398346734,1.999999957800001e-07
"1,1-dichloroethene",ClC(Cl)=C,-1.5885809265000002,G3,1.9352,20.846,0.0,0.0,2.0,0.0,0.0,0.0,0.0,0.0,0.0,35.02112256380525,2.8030394876740514
(6R)-3-methyl-6-(propan-2-yl)cyclohex-2-en-1-one,CC(C)[C@H]1CCC(=CC1=O)C,-1.7882436903,G1,2.567800000000001,46.32600000000002,1.0,0.0,1.0,1.0,0.0,0.0,1.0,1.0,17.07,68.4898179717293,2.68372322265692
"(2S,5R)-6-amino-3,3-dimethyl-7-oxo-4-thia-1-azabicyclo[3.2.0]heptane-2-carboxylic acid",CC1(C)S[C@@H]2[C@H](N)C(=O)N2[C@H]1C(O)=O,-1.9440451079,G1,-0.5394000000000001,51.70320000000001,4.0,2.0,6.0,1.0,0.0,2.0,2.0,2.0,83.63,85.62229586641223,2.316550247997115
"boron(+3) cation; N,N-dimethyloctan-1-amine; trichloride",[B+3].[Cl-].[Cl-].[Cl-].CCCCCCCCN(C)C,-5.4653701933,G1,-6.460300000000005,57.68400000000005,1.0,0.0,5.0,7.0,0.0,0.0,0.0,0.0,3.24,116.56495384053656,-8.333332564583407e-08
2-chlorobenzenethiol,Sc1ccccc1Cl,-1.7800351331,G5,2.6287000000000003,38.704000000000015,1.0,1.0,2.0,0.0,1.0,0.0,0.0,1.0,0.0,58.88973600978036,3.134861511345448
3-aminopyrazine-2-carboxylic acid,Nc1nccnc1C(O)=O,-1.7631595965,G1,-0.2430000000000001,33.40369999999999,4.0,2.0,5.0,1.0,1.0,0.0,0.0,1.0,89.1,56.53128774503908,3.1529414466808685
[(2-chlorophenyl)methyl]dimethylamine,CN(C)Cc1ccccc1Cl,-1.8493554218,G2,2.4016,48.84300000000003,1.0,0.0,2.0,2.0,1.0,0.0,0.0,1.0,3.24,72.58932935977182,2.7755013203964274
"diallyl oxydiethane-2,1-diyl biscarbonate",C=CCOC(=O)OCCOCCOC(=O)OCC=C,-2.0652647201,G1,1.6814,65.81300000000005,7.0,0.0,7.0,10.0,0.0,0.0,0.0,0.0,80.29,111.26517856944564,3.2632964780482347
oct-7-en-1-ol,OCCCCCCC=C,-1.7442328638,G3,2.1152,40.3678,1.0,1.0,1.0,6.0,0.0,0.0,0.0,0.0,20.23,57.39847654861756,2.663883887398184
benzenesulfonyl chloride,Cl[S](=O)(=O)c1ccccc1,-1.88532188,G1,1.6141,39.480800000000016,2.0,0.0,4.0,1.0,1.0,0.0,0.0,1.0,34.14,63.86387098136106,3.2186466288823383
"3-[(2-isopropyl-5-methylcyclohexyl)oxy]propane-1,2-diol",CC(C)C1CCC(C)CC1OCC(O)CO,-2.0063585886,G1,1.817,64.17560000000006,3.0,2.0,3.0,5.0,0.0,1.0,1.0,1.0,49.69,98.81473798095853,2.4426551723460426
3-hydroxy-4-methoxybenzaldehyde,COc1ccc(C=O)cc1O,-1.8262432451,G1,1.2132999999999998,40.046300000000016,3.0,1.0,3.0,2.0,1.0,0.0,0.0,1.0,46.53,64.23058843003683,3.0854525021372017
4-methylbenzaldehyde,Cc1ccc(C=O)cc1,-1.7237015325,G3,1.80752,36.566500000000005,1.0,0.0,1.0,1.0,1.0,0.0,0.0,1.0,17.07,54.32280944833394,3.009781947786601
4-amino-3-nitrophenol,Nc1ccc(O)cc1[N+]([O-])=O,-1.8337646505,G1,0.8825999999999998,39.17360000000001,4.0,2.0,5.0,1.0,1.0,0.0,0.0,1.0,89.38999999999999,62.21850329120549,3.232208870305491