Name,SMILES,Solubility,Group,MolLogP,MolMR,NumHAcceptors,NumHDonors,NumHeteroatoms,NumRotatableBonds,NumAromaticRings,NumSaturatedRings,NumAliphaticRings,RingCount,TPSA,LabuteASA,BalabanJ
"benzenebutanoic acid, 4-methoxy--oxo-",COc1ccc(cc1)C(=O)CCC(O)=O,-1.0632,G1,1.7427,54.19430000000002,3.0,1.0,4.0,5.0,1.0,0.0,0.0,1.0,63.6,87.48693687327045,2.616933050569206
"d-glycero-d-gulo-heptopyranoside, phenyl, -",OCC(O)C1OC(Oc2ccccc2)C(O)C(O)C1O,-1.5537,G1,-1.7738000000000005,66.84400000000004,7.0,5.0,7.0,4.0,1.0,1.0,1.0,2.0,119.61,115.17842598673782,2.113871160709672
"-d-glucofuranose, 1,2:5,6-bis-o-(1-methylethyli",CC(=O)O[C@H]1[C@H](O[C@@H]2OC(C)(C)O[C@H]12)[C@H]3COC(C)(C)O3,-1.5229,G1,0.9459999999999992,69.15600000000005,7.0,0.0,7.0,2.0,0.0,3.0,3.0,3.0,72.45000000000002,123.30879853148278,1.7669203352360854
"2-cyclopenta[c]pyran-4-carboxylic acid, 1-(-d-g",COC(=O)C1=CO[C@@H](O[C@@H]2O[C@H](CO)[C@@H](O)[C@H](O)[C@H]2O)[C@@H]3[C@@H](C)[C@@H](O)C[C@H]13,-0.5911,G1,-2.1507999999999976,86.59200000000003,10.0,5.0,10.0,4.0,0.0,2.0,3.0,3.0,155.14,155.45810014445468,1.7990697171216272