Name,SMILES,Solubility,Group,MolLogP,MolMR,NumHAcceptors,NumHDonors,NumHeteroatoms,NumRotatableBonds,NumAromaticRings,NumSaturatedRings,NumAliphaticRings,RingCount,TPSA,LabuteASA,BalabanJ
N-ethyl(propan-2-yloxy)carbothioamide,CCNC(=S)OC(C)C,-1.7447887835,G3,1.3058,42.49570000000002,2.0,1.0,3.0,2.0,0.0,0.0,0.0,0.0,21.26,61.58614926013238,3.2711920488970017
"ethyl 3,4-dihydroxybenzoate",CCOC(=O)c1ccc(O)c(O)c1,-1.8556550616,G1,1.2744999999999995,45.728100000000026,4.0,2.0,4.0,2.0,1.0,0.0,0.0,1.0,66.76,75.38976429662947,2.9029492111309567
"benzene-1,3,5-tricarboxylic acid",OC(=O)c1cc(cc(c1)C(O)=O)C(O)=O,-1.9422995529,G2,0.7811999999999999,47.3199,3.0,3.0,6.0,3.0,1.0,0.0,0.0,1.0,111.9,83.39349701940613,3.387380075453351
"3-(3,4-Dimethoxyphenyl)propanenitrile",COc1ccc(CCC#N)cc1OC,-1.9013447833,G1,2.15998,53.48000000000003,3.0,0.0,3.0,4.0,1.0,0.0,0.0,1.0,42.25,83.87578383196248,2.850568280159484
"octahydrocyclopenta[c]pyrrole-1,3-dione",O=C1NC(=O)C2CCCC12,0.1553573817,G1,0.0590999999999994,33.98069999999999,2.0,1.0,3.0,0.0,0.0,2.0,2.0,2.0,46.17,58.79014779084631,2.265142957607116
2-(cyclohexylamino)ethane-1-sulfonic acid,[Na+].[O-][S](=O)(=O)CCNC1CCCCC1,-0.0784185571,G1,-2.542099999999997,49.43990000000003,4.0,1.0,6.0,4.0,0.0,1.0,1.0,1.0,69.22999999999999,107.8799124914372,1.6899993071002909e-06
disodium sulfate,[Na+].[Na+].[O-][S]([O-])(=O)=O,0.1263337648,G5,-7.329999999999999,10.4746,4.0,0.0,7.0,0.0,0.0,0.0,0.0,0.0,80.25999999999999,85.83298179715149,-7.999999835000003e-08
"(8R,9S,13S,14S,17S)-17-hydroxy-13-methyl-2,4,6,7,8,9,11,12,14,15,16,17-dodecahydro-1H-cyclopenta[a]phenanthren-3-one",C[C@]12CC[C@H]3[C@@H](CCC4=C3CCC(=O)C4)[C@@H]1CC[C@@H]2O,-4.947028744,G1,3.633200000000002,78.16980000000004,2.0,1.0,2.0,0.0,0.0,2.0,4.0,4.0,37.3,121.18609517851051,1.6518209551315002
"2,2-bis(bromomethyl)propane-1,3-diol",OCC(CO)(CBr)CBr,-1.1304017512,G3,0.7471999999999999,44.19260000000003,2.0,2.0,4.0,4.0,0.0,0.0,0.0,0.0,40.46,71.52258220109073,3.824684203207495
sodium 6-[(E)-2-(4-aminophenyl)diazen-1-yl]-5-hydroxynaphthalene-1-sulfonate,[Na+].Nc1ccc(N\N=C\2C=Cc3c(cccc3[S]([O-])(=O)=O)C2=O)cc1,-1.2915600389,G1,-1.1454999999999982,89.68180000000002,7.0,2.0,9.0,3.0,2.0,0.0,1.0,3.0,124.67999999999998,166.21160071694615,2.253331302446343e-06
tin(2+) ion dichloride,[Cl-].[Cl-].[Sn++],-0.0274572689,G1,-6.3728,5.754,0.0,0.0,3.0,0.0,0.0,0.0,0.0,0.0,0.0,48.75314711727057,-0.0
potassium phosphorous acid,[K+].OP(O)O,1.1524094081999998,G1,-3.8058,13.5764,3.0,3.0,5.0,0.0,0.0,0.0,0.0,0.0,60.69,73.43927102063851,0.0
"trisodium 5-oxo-1-(4-sulfonatophenyl)-4-[(E)-2-(4-sulfonatophenyl)diazen-1-yl]-4,5-dihydro-1H-pyrazole-3-carboxylate",[Na+].[Na+].[Na+].[O-]C(=O)C1=NN(c2ccc(cc2)[S]([O-])(=O)=O)C(=O)C1N=Nc3ccc(cc3)[S]([O-])(=O)=O,-0.5049964012,G1,-9.88820000000001,97.0424,12.0,0.0,18.0,6.0,2.0,0.0,1.0,3.0,211.92,259.6292534909064,3.629998183992609e-06
(2S)-2-aminopropanoic acid,CC(N)C(O)=O,0.2678986156,G3,-0.5817999999999999,21.285200000000003,2.0,2.0,3.0,1.0,0.0,0.0,0.0,0.0,63.32,35.76478180587526,3.2575861612334887
2-[benzyl(tert-butyl)amino]-1-[4-hydroxy-3-(hydroxymethyl)phenyl]ethan-1-one hydrochloride,[H+].[Cl-].CC(C)(C)N(CC(=O)c1ccc(O)c(CO)c1)Cc2ccccc2,-1.3487765491,G1,0.4844000000000003,96.07710000000004,4.0,2.0,5.0,6.0,2.0,0.0,0.0,2.0,60.77000000000001,156.55574913741796,3.124998465417442e-06
"1,3,3-trimethyl-2-[(1E)-[2-methyl-2-(4-methylphenyl)hydrazin-1-ylidene]methyl]-3H-indol-1-ium chloride",[Cl-].CN(N=CC1=[N+](C)c2ccccc2C1(C)C)c3ccc(C)cc3,-1.3292188053,G1,1.1272200000000017,98.39340000000006,2.0,0.0,4.0,3.0,2.0,0.0,1.0,3.0,18.61,150.28588248850798,2.0833315750709736e-06
cyclohexanone oxime,ON=C1CCCCC1,-0.8495729560999999,G5,1.7807,32.30649999999999,2.0,1.0,2.0,0.0,0.0,1.0,1.0,1.0,32.59,49.20172518381748,2.3318756492984862
(2S)-pyrrolidine-2-carboxylic acid,OC(=O)C1CCCN1,1.1291356492,G5,-0.177,28.660499999999992,2.0,2.0,3.0,1.0,0.0,1.0,1.0,1.0,49.33,47.69880636773457,2.34993673877678
calcium bis(phosphinate),[Ca++].[O-]P=O.[O-]P=O,-0.0326449205,G3,-1.274,20.967,4.0,0.0,7.0,0.0,0.0,0.0,0.0,0.0,80.25999999999999,73.49733556503611,-3.9999999812500013e-08
azanium; 2-[3-[bis(2-oxido-2-oxoethyl)amino]propyl-(2-oxido-2-oxoethyl)amino]acetate; iron(+3) cation,[NH4+].[Fe+3].[O-]C(=O)CN(CCCN(CC([O-])=O)CC([O-])=O)CC([O-])=O,0.1050056219999999,G1,-6.646199999999999,63.50980000000002,10.0,1.0,12.0,12.0,0.0,0.0,0.0,0.0,203.5,142.46273355732887,-1.999999050500463e-06
sodium 4-[(2-hydroxy-1-naphthyl)diazenyl]-3-methylbenzenesulfonate,[Na+].Cc1cc(ccc1N\N=C2\C(=O)C=Cc3ccccc23)[S]([O-])(=O)=O,-0.4366004304,G1,-0.6847800000000002,89.78490000000002,6.0,1.0,8.0,3.0,2.0,0.0,1.0,3.0,98.66,167.23665213433006,2.2533313199240675e-06
"disodium 5-acetamido-4-hydroxy-3-[(E)-2-phenyldiazen-1-yl]naphthalene-2,7-disulfonate",[Na+].[Na+].CC(=O)Nc1cc(cc2C=C(\C(=N/Nc3ccccc3)C(=O)c12)[S]([O-])(=O)=O)[S]([O-])(=O)=O,-0.5866084475,G1,-4.892399999999993,108.21330000000002,10.0,2.0,15.0,5.0,2.0,0.0,1.0,3.0,184.96,233.35501416513108,2.7224982938323694e-06
"N,N-dimethylcyclohexanamine",CN(C)C1CCCCC1,-0.9774881423,G1,1.8807,40.56000000000001,1.0,0.0,1.0,1.0,0.0,1.0,1.0,1.0,3.24,58.04784834527996,2.2283621149350434
dilithium(1+) ion carbonate,[Li+].[Li+].[O-]C([O-])=O,-0.7546423143000001,G3,-8.439,5.396,3.0,0.0,5.0,0.0,0.0,0.0,0.0,0.0,63.19,59.084371684130176,-4.4999999250000016e-08
(6-aminohexyl)carbamic acid,NCCCCCCNC(O)=O,-0.0952988049,G1,0.7731000000000001,43.549900000000015,2.0,3.0,4.0,6.0,0.0,0.0,0.0,0.0,75.35,66.77441244706974,2.8497612822334424
lithium(1+) ion trifluoromethanesulfonate,[Li].O[S](=O)(=O)C(F)(F)F,0.9030401981,G1,0.0132,23.3576,2.0,1.0,8.0,0.0,0.0,0.0,0.0,0.0,54.37,61.1620587725813,0.0
amino(imino)methanaminium nitrate,NC(N)=N.O[N+]([O-])=O,0.0102512628,G1,-1.50913,24.88240000000001,3.0,4.0,7.0,0.0,0.0,0.0,0.0,0.0,139.26000000000002,44.5114625488228,0.0
2-(2-ethoxyethoxy)ethyl prop-2-enoate,CCOCCOCCOC(=O)C=C,-0.181251006,G1,0.7686999999999999,48.46800000000003,4.0,0.0,4.0,8.0,0.0,0.0,0.0,0.0,44.760000000000005,78.47134269938256,2.99088699463412
butanedinitrile,N#CCCC#N,0.1752408894,G3,0.81376,20.459999999999997,2.0,0.0,2.0,1.0,0.0,0.0,0.0,0.0,47.58,36.6192367339568,2.783540827789881
benzenesulfonic acid,O[S](=O)(=O)c1ccccc1,0.8489070931,G1,0.9333,36.25660000000001,2.0,1.0,4.0,1.0,1.0,0.0,0.0,1.0,54.37,59.06003912953759,3.2186466288823383
xylenesulphonic acid,Cc1cccc(c1C)[S](O)(=O)=O,0.7779988658,G5,1.55014,45.73060000000002,2.0,1.0,4.0,1.0,1.0,0.0,0.0,1.0,54.37,71.78992335833081,3.4684785345646363
"sodium hydrogen 4-amino-5-hydroxynaphthalene-2,7-disulfonate",[Na+].Nc1cc(cc2cc(cc(O)c12)[S]([O-])(=O)=O)[S](O)(=O)=O,-1.476228892,G1,-2.7175999999999987,67.80300000000001,7.0,3.0,11.0,2.0,2.0,0.0,0.0,2.0,157.82,141.9178637432341,2.2049988674006007e-06
oxalic acid,OC(=O)C(O)=O,0.0790172102,G4,-0.8443999999999998,15.2716,2.0,2.0,4.0,0.0,0.0,0.0,0.0,0.0,74.6,33.01570484670571,3.5677034550432034
potassium trihydrogen diethanedioate,[K].OC(=O)C(O)=O.OC(=O)C(O)=O,-0.3073494259,G3,-2.0696,36.29719999999999,4.0,4.0,9.0,0.0,0.0,0.0,0.0,0.0,149.2,113.58549662887036,-1.4285714138775514e-07
lithium(1+) ion nitrate,[Li+].[O-][N+]([O-])=O,1.1700973958,G1,-3.2351,10.3614,3.0,0.0,5.0,0.0,0.0,0.0,0.0,0.0,66.19999999999999,40.07312241353915,0.0
2-(butylamino)ethan-1-ol,CCCCNCCO,0.931102034,G1,0.3683999999999999,34.863499999999995,2.0,2.0,2.0,5.0,0.0,0.0,0.0,0.0,32.26,50.90805753561664,2.53006045688352
2-(methylamino)ethan-1-ol,CNCCO,1.1242964559,G1,-0.8019000000000001,21.0125,2.0,2.0,2.0,2.0,0.0,0.0,0.0,0.0,32.26,31.81323119242682,2.19060968716425
2-aminoethan-1-ol,NCCO,1.2140725315,G1,-1.0626000000000002,16.140200000000004,2.0,2.0,2.0,1.0,0.0,0.0,0.0,0.0,46.25,25.238317591434885,1.9747448713915892
"N,N-dimethylformamide",CN(C)C=O,1.1361123296,G1,-0.2956000000000001,19.751,1.0,0.0,2.0,1.0,0.0,0.0,0.0,0.0,20.31,31.390491026869903,2.825749368745867
chromium(3+) ion hydroxide sulfate,[OH-].[Cr+3].[O-][S]([O-])(=O)=O,0.7823423727,G2,-1.5173,12.4104,5.0,0.0,7.0,0.0,0.0,0.0,0.0,0.0,110.26,51.36044897212867,-7.999999835000003e-08
disodium sulfanediide,[Na+].S,1.2435692985,G1,-2.8832,10.381,0.0,0.0,2.0,0.0,0.0,0.0,0.0,0.0,0.0,42.97473183758309,0.0
sodium 3-[(E)-2-[5-(diethylsulfamoyl)-2-methoxyphenyl]diazen-1-yl]-4-hydroxynaphthalene-1-sulfonate,[Na+].CCN(CC)[S](=O)(=O)c1ccc(OC)c(N\N=C\2C=C(c3ccccc3C2=O)[S]([O-])(=O)=O)c1,-2.4667539114,G1,-0.7197999999999978,122.60520000000002,9.0,1.0,13.0,8.0,2.0,0.0,1.0,3.0,145.26999999999998,220.33057538404185,4.083327102857024e-06
ethyl N-ethyl-N-phenylcarbamate,CCOC(=O)N(CC)c1ccccc1,0.8673994761,G1,2.6694000000000013,56.48400000000004,2.0,0.0,3.0,3.0,1.0,0.0,0.0,1.0,29.54,84.29101469123403,2.7684603093461297
4-(4-hydroxybenzenesulfonyl)phenol,Oc1ccc(cc1)[S](=O)(=O)c2ccc(O)cc2,-2.3570247849,G1,1.9306,61.665400000000034,4.0,2.0,5.0,2.0,2.0,0.0,0.0,2.0,74.6,98.70236321173964,2.4961289671937283
"1-(2,4-dihydroxy-6-{[(2S,3R,4S,5S,6R)-3,4,5-trihydroxy-6-(hydroxymethyl)oxan-2-yl]oxy}phenyl)-3-(4-hydroxyphenyl)propan-1-one",OC[C@H]1O[C@@H](Oc2cc(O)cc(O)c2C(=O)CCc3ccc(O)cc3)[C@H](O)[C@@H](O)[C@@H]1O,-2.639897679,G1,-0.2024000000000002,104.9251,10.0,7.0,10.0,7.0,2.0,1.0,1.0,3.0,177.14,176.71539402603082,1.8180871764579956
3-chloro-2-methylaniline,Cc1c(N)cccc1Cl,-2.1510663204,G3,2.23062,40.60140000000001,1.0,1.0,2.0,0.0,1.0,0.0,0.0,1.0,26.02,59.43950215778796,3.2478347337367035
2-phenylethyl acetate,CC(=O)OCCc1ccccc1,-2.2317574452,G1,1.7922,46.77900000000003,2.0,0.0,2.0,3.0,1.0,0.0,0.0,1.0,26.3,72.16623890663405,2.290572056240154
5-(dithiolan-3-yl)valeric acid,OC(=O)CCCCC1CCSS1,-2.3750473352,G1,2.7851000000000017,54.55780000000003,3.0,1.0,4.0,5.0,0.0,1.0,1.0,1.0,37.3,80.88995266439649,1.90892263435229
2-(2-methylphenoxymethyl)oxirane,Cc1ccccc1OCC2CO2,-2.2911044462,G1,1.77262,46.41400000000003,2.0,0.0,2.0,3.0,1.0,1.0,1.0,2.0,21.76,72.11243088256792,1.9604804174339308
2-[4-(2-sulfoethyl)piperazin-1-yl]ethane-1-sulfonic acid,[Na+].O[S](=O)(=O)CCN1CCN(CC1)CC[S]([O-])(=O)=O,-2.7475939424,G1,-4.958999999999995,63.85980000000004,7.0,1.0,11.0,6.0,0.0,1.0,1.0,1.0,118.04999999999998,135.47835365827655,3.2399975916018463e-06
"5-chloro-1-(piperidin-4-yl)-2,3-dihydro-1H-1,3-benzodiazol-2-one",Clc1ccc2N(C3CC[NH2+]CC3)C(=O)Nc2c1,-2.6630758608,G1,0.8812999999999995,67.49910000000001,2.0,2.0,5.0,1.0,2.0,1.0,1.0,3.0,54.4,103.5853774687756,2.141206047367709
"3,5,5-trimethylhexanal",CC(CC=O)CC(C)(C)C,-2.6759065954,G5,2.6477000000000013,43.917000000000016,1.0,0.0,1.0,3.0,0.0,0.0,0.0,0.0,17.07,63.82031004304616,3.5643933326870947
"1,2-dichlorobenzene",Clc1ccccc1Cl,-3.0533857998,G5,2.9934000000000003,36.46200000000001,0.0,0.0,2.0,0.0,1.0,0.0,0.0,1.0,0.0,58.03793557326031,3.134861511345448
(E)-anethole,COc1ccc(\C=C\C)cc1,-3.1255398769,G1,2.728300000000001,47.70200000000003,1.0,0.0,1.0,2.0,1.0,0.0,0.0,1.0,9.23,67.31511377440602,2.8240417350315044
chromium(3+) ion trichloride,[Cl-].[Cl-].[Cl-].[Cr+3],-3.1996317806,G2,-8.990499999999999,0.0,0.0,0.0,4.0,0.0,0.0,0.0,0.0,0.0,0.0,54.70127050953867,-0.0
"4-(2-{2-amino-4-oxo-3H,4H,7H-pyrrolo[2,3-d]pyrimidin-5-yl}ethyl)benzoic acid",NC1=Nc2[nH]cc(CCc3ccc(cc3)C(O)=O)c2C(=O)N1,-3.5742890365,G4,1.3168,81.93610000000001,4.0,4.0,7.0,4.0,3.0,0.0,0.0,3.0,124.86,124.37061323268962,1.8204944607870932
methane dimolybdenum,C.[Mo].[Mo],-3.4202754414,G3,0.6311,6.731,0.0,0.0,2.0,0.0,0.0,0.0,0.0,0.0,0.0,49.51542721139212,-0.0
sodium (2S)-1-hexadecanoyl-5-oxopyrrolidine-2-carboxylate,[Na+].CCCCCCCCCCCCCCCC(=O)N1[C@@H](CCC1=O)C([O-])=O,-4.0223191178,G1,0.7392000000000005,100.19400000000007,4.0,0.0,6.0,15.0,0.0,1.0,1.0,1.0,77.50999999999999,186.48429550747517,6.759987915222543e-06
"ethyl N,N-diphenylcarbamate",CCOC(=O)N(c1ccccc1)c2ccccc2,-3.9692395593,G1,3.981200000000003,72.04500000000004,2.0,0.0,3.0,3.0,2.0,0.0,0.0,2.0,29.54,106.61822466850484,2.3846013263544226
3-chloro-4-[(3-fluorophenyl)methoxy]aniline,Nc1ccc(OCc2cccc(F)c2)c(Cl)c1,-4.6932923336000005,G1,3.6403000000000016,66.59640000000002,2.0,1.0,4.0,3.0,2.0,0.0,0.0,2.0,35.25,103.7756769962851,2.0709468269726354
"2-(4-bromo-3-hydroxyquinolin-2-yl)-2,3-dihydro-1H-indene-1,3-dione",Oc1c(Br)c2ccccc2nc1C3C(=O)c4ccccc4C3=O,-4.8670972664,G1,3.865700000000002,88.95180000000002,4.0,1.0,5.0,1.0,3.0,0.0,1.0,4.0,67.26,139.4636305858282,1.9605915381292065
"2,6,10,15,19,23-hexamethyltetracosane",CC(C)CCCC(C)CCCC(C)CCCCC(C)CCCC(C)CCCC(C)C,-5.1490404299,G5,11.08439999999999,140.20399999999998,0.0,0.0,0.0,21.0,0.0,0.0,0.0,0.0,0.0,193.3225723453312,3.5365620101598387
calcium dioxido-oxotin,[Ca++].[O-][Sn]([O-])=O,-5.616551128099999,G1,-3.2584,12.1945,3.0,0.0,5.0,0.0,0.0,0.0,0.0,0.0,63.19,67.207505733345,0.0
octadec-2-enylsuccinic acid,CCCCCCCCCCCCCCC/C=C/CC(CC(O)=O)C(O)=O,-6.9644458512,G2,6.589500000000006,107.44760000000008,2.0,2.0,4.0,19.0,0.0,0.0,0.0,0.0,74.6,159.6249441024536,3.369474083903484
2-isopropoxyethyl acetate,CC(C)OCCOC(C)=O,-0.1657752416,G1,0.9745,37.721,3.0,0.0,3.0,4.0,0.0,0.0,0.0,0.0,35.53,61.31751627326672,2.980692229675904
triammonium hexachlororhodate,[NH4+].[NH4+].[NH4+].[Cl-].[Cl-].[Cl-].[Cl-].[Cl-].[Cl-].[Rh+3],-0.5687670702000001,G1,-16.84989999999998,17.954400000000003,0.0,3.0,10.0,0.0,0.0,0.0,0.0,0.0,109.5,111.57761640960491,-0.0
"2,2,4-trimethylhexanedioic acid; 2,4,4-trimethylhexanedioic acid",CC(CC(O)=O)CC(C)(C)C(O)=O,-0.2790374966,G1,1.5981,47.45060000000002,2.0,2.0,4.0,5.0,0.0,0.0,0.0,0.0,74.6,77.57029964748197,4.111090984524121
2-hydroxy-5-sulfobenzoic acid,OC(=O)c1cc(ccc1O)[S](O)(=O)=O,0.6554902722,G1,0.3371,44.88070000000001,4.0,3.0,7.0,2.0,1.0,0.0,0.0,1.0,111.9,79.17497084836997,3.416533376164286
morpholin-4-ium sulfamate,N[S](O)(=O)=O.C1COCCN1,0.727886015,G1,-1.6458999999999988,39.424700000000016,4.0,3.0,7.0,0.0,0.0,1.0,1.0,1.0,101.65,65.60138900181612,1.8666666404833333e-07
potassium fluoride,[F-].[K+],1.2284072863,G1,-5.992,0.0,0.0,0.0,2.0,0.0,0.0,0.0,0.0,0.0,0.0,55.01970541966733,0.0
1-(2-hydroxyethyl)imidazolidin-2-one,OCCN1CCNC1=O,0.8776773261,G1,-0.9961,32.05749999999999,2.0,2.0,4.0,2.0,0.0,1.0,1.0,1.0,52.57,53.45864003793794,2.309791814716797
"4-(2-hydroxyethoxy)benzene-1,3-diaminium sulfate",Nc1ccc(OCCO)c(N)c1,-0.2337041755,G1,0.2220999999999999,47.84760000000001,4.0,3.0,4.0,3.0,1.0,0.0,0.0,1.0,81.5,70.7488477240185,2.722334696822482
2-methylprop-2-enoic acid,CC(=C)C(O)=O,0.0562733679,G3,0.6471,22.449799999999996,1.0,1.0,2.0,1.0,0.0,0.0,0.0,0.0,37.3,36.10023019107489,3.5677034550432034
2-methylprop-2-enoyl 2-methylprop-2-enoate,CC(=C)C(=O)OC(=O)C(C)=C,-0.1967597116,G1,1.2084,40.72700000000001,3.0,0.0,3.0,2.0,0.0,0.0,0.0,0.0,43.370000000000005,65.3512291938317,4.069307057733475
tetraethylazanium benzoate,CC[N+](CC)(CC)CC.[O-]C(=O)c1ccccc1,0.583312842,G1,1.9329,73.19690000000006,2.0,0.0,3.0,5.0,1.0,0.0,0.0,1.0,40.13,110.64727431163416,3.211111055441359e-07
sodium cyanate,[Na+].[O-]C#N,0.1711169096,G1,-4.168220000000001,5.613,2.0,0.0,3.0,0.0,0.0,0.0,0.0,0.0,46.85,46.33946408420622,0.0
sodium hydrogen carbonate,[Na+].OC([O-])=O,0.0579609271,G5,-4.1083,8.0248,2.0,1.0,4.0,0.0,0.0,0.0,0.0,0.0,60.36,50.90264025497728,0.0
2-[(2-hydroxyethyl)amino]ethan-1-ol,OCCNCCO,0.9577927941,G3,-1.4393999999999998,27.041299999999996,3.0,3.0,3.0,4.0,0.0,0.0,0.0,0.0,52.49,42.97240705901943,2.447472887876344
2-(2-{2-[2-(prop-2-enoyloxy)ethoxy]ethoxy}ethoxy)ethyl prop-2-enoate,C=CC(=O)OCCOCCOCCOCCOC(=O)C=C,-0.5000132962,G1,0.4945999999999999,74.76900000000003,7.0,0.0,7.0,14.0,0.0,0.0,0.0,0.0,80.29000000000002,123.99506279823888,3.0871241800658007
sodium bromide,[Na+].[Br-],0.9635010857,G1,-5.992,0.0,0.0,0.0,2.0,0.0,0.0,0.0,0.0,0.0,0.0,46.294579495063154,0.0
1-methoxy-2-(2-methoxyethoxy)ethane,COCCOCCOC,0.8454562496,G3,0.2958,34.57099999999999,3.0,0.0,3.0,6.0,0.0,0.0,0.0,0.0,27.69,55.90459728833323,2.595082706793886
(2E)-but-2-enoic acid,C/C=C/C(O)=O,0.0381751458,G3,0.6471,22.449799999999996,1.0,1.0,2.0,1.0,0.0,0.0,0.0,0.0,37.3,36.10023019107489,3.301627871993482
barium dinitrate,[Ba++].[O-][N+]([O-])=O.[O-][N+]([O-])=O,-0.4440713859,G1,-0.8590000000000002,26.476800000000004,6.0,0.0,9.0,0.0,0.0,0.0,0.0,0.0,132.4,88.75877657363266,-7.199999951999999e-08
"bis(5-oxo-L-prolinato-N1,O2)zinc",[Zn++].[O-]C(=O)C1CCC(=O)N1.[O-]C(=O)C2CCC(=O)N2,-0.5341935881000001,G1,-3.972699999999997,52.34340000000002,6.0,2.0,9.0,2.0,0.0,2.0,2.0,2.0,138.45999999999998,121.23550721821783,3.239999946180001e-07
calcium bis(dihydrogenorthophosphate),[Ca++].O[P](O)([O-])=O.O[P](O)([O-])=O,-0.3966430532,G1,-3.502,29.842199999999995,4.0,4.0,11.0,0.0,0.0,0.0,0.0,0.0,161.18,91.3605319243126,-1.0666666581111113e-07
potassium (dimethylamino)acetate,[K+].CN(C)CC([O-])=O,0.8091728638,G1,-4.698099999999998,23.56099999999999,3.0,0.0,4.0,2.0,0.0,0.0,0.0,0.0,43.37,91.47223158882512,0.0
dipotassium carbonate,[K+].OC([O-])=O,0.9537476957,G3,-4.1083,8.0248,2.0,1.0,4.0,0.0,0.0,0.0,0.0,0.0,60.36,71.41180532762793,0.0
3-methylbut-3-en-1-ol,CC(=C)CCO,0.0190678934,G1,0.9449,26.51679999999999,1.0,1.0,1.0,2.0,0.0,0.0,0.0,0.0,20.23,38.303650205427736,2.8312571099313644
"sodium 3-(2H-1,2,3-benzotriazol-2-yl)-5-(butan-2-yl)-4-hydroxybenzene-1-sulfonate",[Na+].CCC(C)c1cc(cc(n2nc3ccccc3n2)c1O)[S]([O-])(=O)=O,-1.5762449498,G1,-0.4523000000000003,87.19900000000004,7.0,1.0,9.0,4.0,3.0,0.0,0.0,3.0,108.14,167.26153470614338,2.25333161155692e-06
4-methylaniline,Cc1ccc(N)cc1,-1.0477452605,G5,1.5772199999999998,35.5914,1.0,1.0,1.0,0.0,1.0,0.0,0.0,1.0,26.02,49.13623593090628,3.0324555320336755
2-ethoxyphenol,CCOc1ccccc1O,-1.1714515037,G1,1.7908999999999995,39.27580000000001,2.0,1.0,2.0,2.0,1.0,0.0,0.0,1.0,29.46,60.06906632999306,2.811180917188401
"(5-ethyl-1,3-dioxan-5-yl)methyl prop-2-enoate",CCC1(COCOC1)COC(=O)C=C,-1.3330548746,G1,1.1162999999999998,50.65100000000003,4.0,0.0,4.0,4.0,0.0,1.0,1.0,1.0,44.760000000000005,83.83045366024994,2.4312928241103484
4-hydroxy-3-methoxybenzaldehyde,COc1cc(C=O)ccc1O,-1.2280265929,G3,1.2132999999999998,40.046300000000016,3.0,1.0,3.0,2.0,1.0,0.0,0.0,1.0,46.53,64.23058843003683,3.116164133858052
dibromomethane,BrCBr,-1.2858947125,G3,1.7337,22.721,0.0,0.0,2.0,0.0,0.0,0.0,0.0,0.0,0.0,36.47434623911227,1.6329931618554523
disodium selenite,[Na+].[Na+].[O-][Se]([O-])=O,0.7153884158,G1,-8.8696,6.440499999999999,3.0,0.0,6.0,0.0,0.0,0.0,0.0,0.0,63.19,84.44067163269855,-4.4999999250000016e-08
sodium 1-benzylpyridin-1-ium-3-carboxylate chloride,[Na+].[Cl-].[O-]C(=O)c1ccc[n+](Cc2ccccc2)c1,0.5192202667,G1,-5.606099999999996,56.51150000000003,2.0,0.0,5.0,3.0,2.0,0.0,0.0,2.0,44.01,134.1702497493972,1.444999677850074e-06
2-methylbut-3-yn-2-amine,CC(C)(N)C#C,1.0316559884,G1,0.3569000000000001,27.099399999999992,1.0,1.0,1.0,0.0,0.0,0.0,0.0,0.0,26.02,38.53813557428796,3.552734354515761
sodium vanadiumoylolate,[Na+].[O-][V](=O)=O,0.2664613742,G1,-4.425100000000001,1.373,3.0,0.0,5.0,0.0,0.0,0.0,0.0,0.0,57.2,56.0284921282132,0.0
1-[(2-hydroxypropyl)amino]propan-2-ol,CC(O)CNCC(C)O,0.815044373,G5,-0.6623999999999999,36.2313,3.0,3.0,3.0,4.0,0.0,0.0,0.0,0.0,52.49,55.70229128781264,2.914658625512464
Methenamine,C1N2CN3CN1CN(C2)C3,0.7924026819,G1,-1.0197999999999992,36.558,4.0,0.0,4.0,0.0,0.0,4.0,4.0,4.0,12.96,60.58580282003839,1.897366596101028
lanthanum(3+) ion trichloride,O.O.O.O.O.O.O.[Cl-].[Cl-].[Cl-].[La+3],0.3652265972,G1,-14.760899999999994,25.296599999999994,0.0,0.0,11.0,0.0,0.0,0.0,0.0,0.0,220.5,110.29673508075868,-0.0
2-ethyloxirane,CCC1CO1,0.080542298,G5,0.7952,20.030999999999995,1.0,0.0,1.0,1.0,0.0,1.0,1.0,1.0,12.53,31.941791446997023,1.9989394851788975
aluminium(3+) ion triformate,[Al+3].[O-]C=O.[O-]C=O.[O-]C=O,-0.2746003214999999,G3,-5.282499999999999,23.945999999999994,6.0,0.0,7.0,0.0,0.0,0.0,0.0,0.0,120.39,67.22157811238725,-2.5714285645408165e-08
cyclohexanone,O=C1CCCCC1,-0.0573697280999999,G5,1.5196,28.091999999999985,1.0,0.0,1.0,0.0,0.0,1.0,1.0,1.0,17.07,43.719652546327126,2.2495440947344707
diammonium [(sulfonoperoxoato sulfato)oxy]sulfonoperoxoate,[NH4+].[NH4+].[O-][S](=O)(=O)OO[S]([O-])(=O)=O,0.5710956732,G1,-1.3926000000000005,33.534000000000006,8.0,2.0,12.0,3.0,0.0,0.0,0.0,0.0,205.86,68.47747518827553,-4.0499995882500426e-07