Name,SMILES,Solubility,Group,MolLogP,MolMR,NumHAcceptors,NumHDonors,NumHeteroatoms,NumRotatableBonds,NumAromaticRings,NumSaturatedRings,NumAliphaticRings,RingCount,TPSA,LabuteASA,BalabanJ
(3-chloro-2-hydroxypropyl)trimethylazanium chloride,[Cl-].C[N+](C)(C)CC(O)CCl,0.6474063078,G1,-2.703699999999997,39.6262,1.0,1.0,4.0,3.0,0.0,0.0,0.0,0.0,20.23,73.78435998823838,0.0
"2,2-dimethylpropane-1,3-diol",CC(C)(CO)CO,0.901422988,G1,-0.0028,27.95259999999999,2.0,2.0,2.0,2.0,0.0,0.0,0.0,0.0,40.46,43.787486989808,3.3604351426960584
ethyl acetate,CCOC(C)=O,-0.025404461,G5,0.5694,22.30699999999999,2.0,0.0,2.0,1.0,0.0,0.0,0.0,0.0,26.3,37.10914470057002,2.831257109931365
"(1Z,5Z)-cycloocta-1,5-diene; rhodium; dichloride",[Cl].[Cl].[Rh].[Rh].C\1C\C=C/CC\C=C1.C\2C\C=C/CC\C=C2,-2.4997980736,G1,6.719600000000004,85.20200000000004,0.0,0.0,4.0,0.0,0.0,0.0,2.0,2.0,0.0,162.52198205174096,-1.0666666542222227e-07
"potassium hydrogen benzene-1,2-dicarboxylate",[K+].OC(=O)c1ccccc1C([O-])=O,-0.3910244327,G2,-3.2476999999999983,37.73180000000001,3.0,1.0,5.0,2.0,1.0,0.0,0.0,1.0,77.43,116.99536374813236,1.439999672400077e-06
sodium 2-chloroacetate,[Na+].[O-]C(=O)CCl,0.8486241841,G3,-4.020899999999999,15.727,2.0,0.0,4.0,1.0,0.0,0.0,0.0,0.0,40.13,62.77661484405956,0.0
azepan-2-one,O=C1CCCCCN1,0.8601209136,G5,0.6766000000000001,31.477699999999988,1.0,1.0,2.0,0.0,0.0,1.0,1.0,1.0,29.1,49.26951472993517,2.26669651519302
sodium nitrite,[Na+].[O-]N=O,1.0749962334,G5,-2.7454,9.162,3.0,0.0,4.0,0.0,0.0,0.0,0.0,0.0,52.49,45.230712772049365,0.0
sodium 4-methylbenzene-1-sulfonate,[Na+].Cc1ccc(cc1)[S]([O-])(=O)=O,0.6245331513,G1,-2.096879999999998,39.14220000000002,3.0,0.0,5.0,1.0,1.0,0.0,0.0,1.0,57.2,93.83838086664612,1.2099997657000466e-06
"1-N-(2-hydroxyethyl)-4-methoxybenzene-1,3-bis(aminium) sulfate",COc1ccc([NH2+]CCO)cc1[NH3+].[O-][S]([O-])(=O)=O,-0.5343422948,G1,-2.5821999999999985,59.55490000000002,6.0,3.0,9.0,4.0,1.0,0.0,0.0,1.0,153.97,104.9614661168343,4.943076631850514e-07
bis(prop-2-en-1-yl)amine,C=CCNCC=C,-0.0790069571,G3,0.948,33.26369999999999,1.0,1.0,1.0,4.0,0.0,0.0,0.0,0.0,12.03,44.73461771905212,2.679549206552144
dimethyl {3-[(hydroxymethyl)amino]-3-oxopropyl}phosphonate,CO[P](=O)(CCC(=O)NCO)OC,1.5784906741,G1,-0.0716,46.337000000000025,5.0,2.0,7.0,6.0,0.0,0.0,0.0,0.0,84.86000000000001,76.759610511022,3.85745365114857
hexanedinitrile,N#CCCCCC#N,-0.1309124421,G1,1.59396,29.69399999999999,2.0,0.0,2.0,3.0,0.0,0.0,0.0,0.0,47.58,49.34912096275002,2.7739011632941284
3-oxo-N-phenylbutanamide,CC(=O)CC(=O)Nc1ccccc1,-1.2990810635,G1,1.6041999999999998,50.36970000000002,2.0,1.0,3.0,3.0,1.0,0.0,0.0,1.0,46.17,76.76407796077896,2.5044549868496246
"1,3,3-trimethyl-2-[(1E)-[2-methyl-2-(4-methylphenyl)hydrazin-1-ylidene]methyl]-3H-indol-1-ium methyl sulfate",CO[S]([O-])(=O)=O.CN(N=CC1=[N+](C)c2ccccc2C1(C)C)c3ccc(C)cc3,-1.6762060534999998,G1,3.2162200000000025,115.09960000000004,6.0,0.0,8.0,4.0,2.0,0.0,1.0,3.0,85.04,172.4547476194899,4.384057384283894e-07
"2-[(1E)-[2-(4-methoxyphenyl)-2-methylhydrazin-1-ylidene]methyl]-1,3,3-trimethyl-3H-indol-1-ium methyl sulfate",COc1ccc(cc1)N(C)N=CC2=[N+](C)c3ccccc3C2(C)C.CO[S]([O-])(=O)=O,-1.6925364836,G1,2.916400000000001,116.91460000000004,7.0,0.0,9.0,5.0,2.0,0.0,1.0,3.0,94.26999999999998,177.56829284899686,4.693054860196486e-07
"2-butyl-2-ethylpropane-1,3-diol",CCCCC(CC)(CO)CO,-1.2603343364,G1,1.5576,46.42060000000002,2.0,2.0,2.0,6.0,0.0,0.0,0.0,0.0,40.46,69.24725544739442,3.8352571576460592
iodomethane,CI,-1.2145838492,G3,1.0512,19.944,0.0,0.0,1.0,0.0,0.0,0.0,0.0,0.0,0.0,28.001089148873188,1.0
(2E)-2-methylpent-2-enal,CC\C=C(/C)C=O,-1.0573697281,G1,1.5416,30.111999999999988,1.0,0.0,1.0,2.0,0.0,0.0,0.0,0.0,17.07,44.035880667672096,3.490361883601098
Pyromellitic dianhydride,O=C1OC(=O)c2cc3C(=O)OC(=O)c3cc12,-1.4062217243,G3,-0.5045999999999998,53.438,6.0,0.0,6.0,0.0,3.0,0.0,0.0,3.0,94.56,85.0294791112961,2.7986395701748545
butyl 4-oxopentanoate,CCCCOC(=O)CCC(C)=O,-1.306674746,G1,1.6989,45.782000000000025,3.0,0.0,3.0,6.0,0.0,0.0,0.0,0.0,43.370000000000005,73.09537737259683,3.2765533155320856
"5-methyl-octahydro-2-benzofuran-1,3-dione",CC1CCC2C(C1)C(=O)OC2=O,-1.3015260488,G3,1.1222,41.09400000000001,3.0,0.0,3.0,0.0,0.0,2.0,2.0,2.0,43.370000000000005,71.08371506553836,2.169335366426631
calcium bis(2-ethylhexanoate),[Ca++].CCCCC(CC)C([O-])=O.CCCCC(CC)C([O-])=O,-1.5917155587,G3,1.5246000000000002,82.38000000000005,4.0,0.0,5.0,10.0,0.0,0.0,0.0,0.0,80.25999999999999,159.24649359701166,-2.945454481041324e-07
"2,6-dimethylaniline",Cc1cccc(C)c1N,-1.167514488,G3,1.88564,40.32840000000001,1.0,1.0,1.0,0.0,1.0,0.0,0.0,1.0,26.02,55.50117804530289,3.2478347337367026
"1,4-dimethyl cyclohexane-1,4-dicarboxylate",COC(=O)C1CCC(CC1)C(=O)OC,-1.3871946661,G1,1.1387999999999998,49.48000000000003,4.0,0.0,4.0,2.0,0.0,1.0,1.0,1.0,52.60000000000001,83.56803356297111,2.3807662794155533
"sodium 1,4-bis[(2-ethylhexyl)oxy]-1,4-dioxobutane-2-sulfonate",[Na+].CCCCC(CC)COC(=O)CC(C(=O)OCC(CC)CCCC)[S]([O-])(=O)=O,-1.7357141887,G1,0.8135000000000014,106.63220000000008,7.0,0.0,9.0,16.0,0.0,0.0,0.0,0.0,109.8,198.26532149321903,0.0
4-aminobenzamide,NC(=O)c1ccc(N)cc1,-1.2255453859,G1,0.3677,39.3723,2.0,2.0,3.0,1.0,1.0,0.0,0.0,1.0,69.11,58.63764872796276,3.003400684579818
"1,3-dimethyl-3,7-dihydro-1H-purine-2,6-dione",CN1C(=O)N(C)c2nc[nH]c2C1=O,-1.3525852601,G3,-1.039700000000001,46.57570000000001,5.0,1.0,6.0,0.0,2.0,0.0,0.0,2.0,72.68,72.45404341715741,3.21185381303522
"2,2,4-trimethylhexanedinitrile; 2,4,4-trimethylhexanedinitrile",CC(CC#N)CC(C)(C)C#N.CC(CC(C)(C)CC#N)C#N,-1.5746822213999998,G1,4.952120000000005,86.81000000000006,4.0,0.0,4.0,6.0,0.0,0.0,0.0,0.0,95.16,135.51941685197596,0.0
benzyldimethylamine,CN(C)Cc1ccccc1,-1.2279188258,G3,1.7482,43.83300000000003,1.0,0.0,1.0,2.0,1.0,0.0,0.0,1.0,3.24,62.28606313289016,2.5872871851548136
trichloromethane,ClC(Cl)Cl,-1.1738343117,G3,1.9864,21.347,0.0,0.0,3.0,0.0,0.0,0.0,0.0,0.0,0.0,39.64904970847457,2.3237900077244498
ammonium bromide,[NH4+].[Br-],1.908299785,G1,-2.6198,5.9848,0.0,1.0,2.0,0.0,0.0,0.0,0.0,0.0,36.5,24.01693023629782,0.0
oxolan-2-ylmethyl prop-2-enoate,C=CC(=O)OCC1CCCO1,-0.2954517157,G1,0.8945999999999998,40.13000000000001,3.0,0.0,3.0,3.0,0.0,1.0,1.0,1.0,35.53,65.98702420194984,2.1038316924891984
potassium 4-(acetoacetylamino)benzenesulfonate,[K+].CC(=O)CC(=O)Nc1ccc(cc1)[S]([O-])(=O)=O,0.4217473345,G1,-2.4876999999999985,58.33290000000002,5.0,1.0,8.0,4.0,1.0,0.0,0.0,1.0,103.37,147.31527866618225,2.8899984300508875e-06
"(5R)-5-[(1S)-1,2-dihydroxyethyl]-4-ethoxy-3-hydroxy-5H-furan-2-one",CCOC1=C(O)C(=O)O[C@@H]1[C@@H](O)CO,0.5809706515999999,G5,-0.9289000000000004,44.25340000000002,6.0,3.0,6.0,4.0,0.0,0.0,1.0,1.0,96.22,80.36972545853787,2.83906727642114
tetrasodium (1-hydroxy-1-phosphonatoethyl)phosphonate,[Na+].[Na+].[Na+].[Na+].CC(O)([P]([O-])([O-])=O)[P]([O-])([O-])=O,0.4204601089999999,G1,-15.504200000000004,25.836799999999997,7.0,1.0,13.0,2.0,0.0,0.0,0.0,0.0,146.61,175.65484122674968,-8.333332911458357e-08
"1,4-dimethyl (2Z)-but-2-enedioate",COC(=O)\C=C/C(=O)OC,-0.2672048758999999,G5,-0.1114000000000001,33.172,4.0,0.0,4.0,2.0,0.0,0.0,0.0,0.0,52.60000000000001,58.42449322672962,3.7526030864834095
"2-methylbenzene-1,4-diol",Cc1cc(O)ccc1O,-0.2074175173999999,G1,1.4062199999999998,34.5086,2.0,2.0,2.0,0.0,1.0,0.0,0.0,1.0,40.46,53.3848127382856,3.171678030440916
"1,3-dimethylurea",CNC(=O)NC,0.9386362339,G1,-0.4548000000000001,23.5154,1.0,2.0,3.0,0.0,0.0,0.0,0.0,0.0,41.13,36.73038172388261,2.9881608821342693
tetraazanium dioxido-dioxomolybdenum,[NH4+].[NH4+].[NH4+].[NH4+].[O-][Mo]([O-])(=O)=O.[O-][Mo]([O-])(=O)=O,-2.5804798622,G1,-3.7314000000000025,26.68520000000002,8.0,4.0,14.0,0.0,0.0,0.0,0.0,0.0,306.52,86.71645781760022,-1.7777777696296298e-08
sodium 3-[(2-carboxyethyl)(2-ethylhexyl)amino]propanoate,[Na+].CCCCC(CC)CN(CCC(O)=O)CCC([O-])=O,0.4104692649,G1,-1.876499999999996,71.62280000000005,4.0,1.0,6.0,12.0,0.0,0.0,0.0,0.0,80.66999999999999,143.56824351238035,0.0
copper(2+) diacetate,[Cu++].CC([O-])=O.CC([O-])=O,-0.3755357121,G1,-2.490099999999999,21.36199999999999,4.0,0.0,5.0,0.0,0.0,0.0,0.0,0.0,80.25999999999999,63.347040501248905,-7.199999951999999e-08
"N,N-dimethylmethanaminium chloride",[H+].[Cl-].CN(C)C,0.8993339870999999,G1,-2.7056999999999984,20.722999999999995,1.0,0.0,2.0,0.0,0.0,0.0,0.0,0.0,3.24,40.86686054887108,-4.499999910000001e-08
"N-methylmethanaminium (2,4-dichlorophenoxy)acetate",CNC.OC(=O)COc1ccc(Cl)cc1Cl,0.4499772209,G1,2.2924000000000007,64.57650000000002,3.0,2.0,6.0,3.0,1.0,0.0,0.0,1.0,58.56,104.12269844973063,6.730768532686632e-07
methyl 3-methoxypropanoate,COCCC(=O)OC,0.8026937067000001,G1,0.1958999999999999,28.508999999999983,3.0,0.0,3.0,3.0,0.0,0.0,0.0,0.0,35.53,48.5876320444735,2.988598647973156
potassium cyanate,[K+].[O-]C#N,0.9659600909,G1,-4.168220000000001,5.613,2.0,0.0,3.0,0.0,0.0,0.0,0.0,0.0,46.85,66.84862915685684,0.0
4-(vinyloxy)butan-1-ol,OCCCCOC=C,-0.18999534,G1,0.919,32.46879999999999,2.0,1.0,2.0,5.0,0.0,0.0,0.0,0.0,29.46,49.782137549331225,2.616293090417985
potassium phosphinate,[K+].[O-]P=O,0.8626748208,G1,-3.4426,7.6065,2.0,0.0,4.0,0.0,0.0,0.0,0.0,0.0,40.13,68.29758736022039,0.0
sodium phosphinate,O.[Na+].[O-]P=O,0.8546356528,G1,-4.267299999999999,11.2203,2.0,0.0,5.0,0.0,0.0,0.0,0.0,0.0,71.63,53.26917571598416,-1.99999998125e-08
2-(butoxymethyl)oxirane; propan-2-amine; trifluoroborane,CCCCOCC1CO1.CC(C)N.FB(F)F,-0.5379542498,G1,2.4352,63.86840000000005,3.0,1.0,7.0,5.0,0.0,1.0,1.0,1.0,47.78,102.06362749048157,0.0
benzyltriphenylphosphanium chloride,[Cl-].C(c1ccccc1)[P+](c2ccccc2)(c3ccccc3)c4ccccc4,-0.7188245606999999,G1,2.1847000000000003,115.294,0.0,0.0,2.0,5.0,4.0,0.0,0.0,4.0,0.0,168.20530156500416,2.1024981664766527e-06
"sodium 1,4-bis(cyclohexyloxy)-1,4-dioxobutane-2-sulfonate",[Na+].[O-][S](=O)(=O)C(CC(=O)OC1CCCCC1)C(=O)OC2CCCCC2,-0.7147015973999999,G1,-0.9538999999999948,84.03220000000006,7.0,0.0,9.0,6.0,0.0,2.0,2.0,2.0,109.8,170.79389072857413,3.1249964375042534e-06
"2-[2-[4-[(2-cyanoethyl)methylamino]phenyl]vinyl]-1,3,3-trimethyl-3H-indolium hydrogen sulphate",CN(CCC#N)c1ccc(cc1)C=CC2=[N+](C)c3ccccc3C2(C)C.[O-][S]([O-])(=O)=O,-0.7741720686,G1,3.417880000000002,119.77000000000002,6.0,0.0,8.0,5.0,2.0,0.0,1.0,3.0,110.29999999999998,183.70283851416167,6.13743455029586e-07
disodium [(sulfonoperoxoato sulfato)oxy]sulfonoperoxoate,[Na+].[Na+].[O-][S](=O)(=O)OO[S]([O-])(=O)=O,0.4865525209,G1,-8.136999999999999,21.5644,8.0,0.0,12.0,3.0,0.0,0.0,0.0,0.0,132.86,113.03277370580616,-4.0499995882500426e-07
sodium 4-{5-hydroxy-3-methyl-4-[(E)-2-[4-methyl-3-(phenylsulfamoyl)phenyl]diazen-1-yl]-1H-pyrazol-1-yl}benzene-1-sulfonate,[Na+].CC1=NN(C(=O)C1N=Nc2ccc(C)c(c2)[S](=O)(=O)Nc3ccccc3)c4ccc(cc4)[S]([O-])(=O)=O,-0.8725523685,G1,0.5789200000000008,131.73369999999994,9.0,1.0,14.0,7.0,3.0,0.0,1.0,4.0,160.76,235.95073677968583,3.802492248116419e-06
acrylic acid,OC(=O)C=C,0.0059673299,G2,0.257,17.8328,1.0,1.0,2.0,1.0,0.0,0.0,0.0,0.0,37.3,29.735288076678287,3.204805417886435
methanamine,CN,1.3686434782,G3,-0.4251,10.1114,1.0,1.0,1.0,0.0,0.0,0.0,0.0,0.0,26.02,14.079141724842266,1.0
iron(3+) ion sodium 2-({2-[bis(carboxylatomethyl)amino]ethyl}(carboxylatomethyl)amino)acetate,[Na+].[Fe+3].[O-]C(=O)CN(CCN(CC([O-])=O)CC([O-])=O)CC([O-])=O,-0.7073891823999999,G1,-10.408500000000007,52.90800000000002,10.0,0.0,12.0,11.0,0.0,0.0,0.0,0.0,167.0,158.3754407016976,-1.8049992523503188e-06
Dihydrodicyclopentadienyl acrylate,C=CC(=O)OC1C=CC2C3CCC(C3)C12,-3.7081424715,G1,2.3163,57.028000000000034,2.0,0.0,2.0,2.0,0.0,2.0,3.0,3.0,26.3,89.99692420518328,1.7494247234449098
sodium prop-2-ene-1-sulfonate,[Na+].[O-][S](=O)(=O)CC=C,0.6949528649,G1,-3.278399999999998,24.76119999999999,3.0,0.0,5.0,2.0,0.0,0.0,0.0,0.0,57.2,70.8215678571911,0.0
"2-(6-methoxybenzofuran-2-yl)-1,3-dimethyl-5-(methylsulphonyl)1H-benzimidazolium acetate",COc1ccc2cc(oc2c1)C3N(C)c4cc(ccc4[NH+]3C)[S](C)(=O)=O.CC([O-])=O,0.2125744685999999,G1,0.8958999999999997,110.68950000000004,7.0,1.0,9.0,3.0,3.0,0.0,1.0,4.0,104.32,174.73345272608933,5.892306280856371e-07
2-[4-(2-hydroxyethyl)piperazin-1-yl]ethanesulfonic acid,[Na+].OCCN1CCN(CC1)CC[S]([O-])(=O)=O,0.4318666789,G3,-4.854499999999995,54.53000000000005,6.0,1.0,8.0,5.0,0.0,1.0,1.0,1.0,83.91,118.64395140043187,2.249998813500648e-06
L-prolinamide,NC(=O)[C@@H]1CCC[NH2+]1,0.7853597575,G1,-1.8024999999999984,29.0088,1.0,2.0,3.0,1.0,0.0,1.0,1.0,1.0,59.7,48.24446331255128,2.34993673877678
"1,2,4-triazole",[nH]1cncn1,1.0058274476,G3,-0.1952999999999999,16.3827,2.0,1.0,3.0,0.0,1.0,0.0,0.0,1.0,41.57,29.04831307080901,3.1250000000000004
bromide,[H+].[Br-],1.3775443727,G1,-2.8835,1.112,0.0,0.0,1.0,0.0,0.0,0.0,0.0,0.0,0.0,19.365978241846733,0.0
sodium formate,[Na+].[O-]C=O,1.0125444228,G5,-4.629899999999999,6.064,2.0,0.0,3.0,0.0,0.0,0.0,0.0,0.0,40.13,46.10840650278127,0.0
"benzene-1,4-diol",Oc1ccc(O)cc1,-0.1967366109,G5,1.0978,29.7716,2.0,2.0,2.0,0.0,1.0,0.0,0.0,1.0,40.46,47.01987062388899,3.0324555320336755
"acid D,L-aspart",NC(CC(O)=O)C(O)=O,-1.2293181874,G5,-1.127,27.864,3.0,3.0,5.0,3.0,0.0,0.0,0.0,0.0,100.62,51.08547977251164,3.632432151939845
ethyltriphenylphosphanium iodide,[I-].CC[P+](c1ccccc1)(c2ccccc2)c3ccccc3,-1.7271281938,G1,1.0044000000000004,95.68900000000004,0.0,0.0,2.0,4.0,3.0,0.0,0.0,3.0,0.0,150.5038486374212,1.7633322772506531e-06
ammonium trioxovanadate(1-),[V],-0.8144249576,G1,-0.0025,0.0,0.0,0.0,1.0,0.0,0.0,0.0,0.0,0.0,0.0,19.37662092103152,0.0
2-[(4-aminophenyl)amino]-5-nitrobenzene-1-sulfonic acid,Nc1ccc(Nc2ccc(cc2[S](O)(=O)=O)[N+]([O-])=O)cc1,-1.5982895297,G1,2.1673,77.04810000000002,6.0,3.0,9.0,4.0,2.0,0.0,0.0,2.0,135.56,119.65986193872216,2.476591218178952
"1,3,3-trimethyl-2-[(E)-2-(1-methyl-2-phenyl-1H-indol-3-yl)ethenyl]-3H-indol-1-ium chloride",[Cl-].Cn1c2ccccc2c(C=CC3=[N+](C)c4ccccc4C3(C)C)c1c5ccccc5,-1.743927996,G1,3.5687000000000038,127.7084,1.0,0.0,3.0,3.0,4.0,0.0,1.0,5.0,7.939999999999999,190.12887792543407,2.311997308279892e-06
"3,4-dihydro-2H-pyran",C1COC=CC1,-1.0383982131,G1,1.3105,24.32599999999999,1.0,0.0,1.0,0.0,0.0,0.0,1.0,1.0,9.23,37.617130529209376,2.2551447208210704
"octane-1,2-diol",CCCCCCC(O)CO,-1.2899752166,G1,1.3099999999999998,41.851600000000005,2.0,2.0,2.0,6.0,0.0,0.0,0.0,0.0,40.46,62.88231333299782,2.8861627976234385
ethylbis(propan-2-yl)amine,CCN(C(C)C)C(C)C,-1.2416022633,G5,2.1251,42.652000000000015,1.0,0.0,1.0,3.0,0.0,0.0,0.0,0.0,3.24,59.05367949880917,3.677615681908372
"disodium 4,8-diamino-1,5-dihydroxy-9,10-dioxo-9,10-dihydroanthracene-2,6-disulfonate",[Na].Nc1cc(c(O)c2C(=O)c3c(N)cc(c(O)c3C(=O)c12)[S](O)(=O)=O)[S](O)(=O)=O,-1.7991126191,G1,-0.8497999999999997,97.2866,10.0,6.0,15.0,2.0,2.0,0.0,1.0,3.0,235.38,184.47451514212327,2.9999972170026678e-06
"propan-2-yl 2,2,2-trifluoroacetate",CC(C)OC(=O)C(F)(F)F,-1.336078753,G5,1.5003000000000002,27.28299999999999,2.0,0.0,5.0,1.0,0.0,0.0,0.0,0.0,26.3,55.970693023745326,3.867280781013407
sodium 3-[[4-[(2-ethoxy-5-methylphenyl)azo]-1-naphthyl]azo]benzenesulphonate,[Na+].CCOc1ccc(C)cc1N=Nc2ccc(N=Nc3cccc(c3)[S]([O-])(=O)=O)c4ccccc24,-1.8471355444,G1,4.285820000000004,129.0532,8.0,0.0,10.0,7.0,4.0,0.0,0.0,4.0,115.87,225.37121895778765,3.4224942588433547e-06
(2E)-but-2-enedioic acid,OC(=O)\C=C\C(O)=O,-1.2196294277,G4,-0.2881999999999998,24.411599999999996,2.0,2.0,4.0,2.0,0.0,0.0,0.0,0.0,74.6,45.05598604331467,3.668626461933803
1-[(2-hydroxypropyl)(4-methylphenyl)amino]propan-2-ol,CC(O)CN(CC(C)O)c1ccc(C)cc1,-1.5038218002,G1,1.56302,66.75360000000005,3.0,2.0,3.0,5.0,1.0,0.0,0.0,1.0,43.7,97.3342990948686,2.781112714917612
diethyl sulfate,CCO[S](=O)(=O)OCC,-1.3429497185,G1,0.3042000000000001,32.17179999999999,4.0,0.0,5.0,4.0,0.0,0.0,0.0,0.0,52.60000000000001,55.10457396393576,3.734562819666556
potassium trifluoroacetate,[K+].[O-]C(=O)C(F)(F)F,0.6610693015,G1,-3.697399999999999,11.062,2.0,0.0,6.0,0.0,0.0,0.0,0.0,0.0,40.13,85.47911989860722,0.0
phosphorofluoridic acid,[Na+].[Na+].[O-][P]([O-])(F)=O,0.6844005874,G1,-7.2074,8.714500000000001,3.0,0.0,7.0,0.0,0.0,0.0,0.0,0.0,63.19,84.54039226328499,-7.999999807500005e-08
(1-hydroxy-1-phosphonoethyl)phosphonic acid,OC=O,1.1758552936,G3,-0.2991999999999999,8.6928,1.0,1.0,2.0,0.0,0.0,0.0,0.0,0.0,37.3,17.69500688006933,2.1874960973678963
diammonium dihydrogen 2-({2-[bis(carboxylatomethyl)amino]ethyl}(carboxylatomethyl)amino)acetate,[NH4+].[NH4+].OC(=O)CN(CCN(CC(O)=O)CC([O-])=O)CC([O-])=O,0.3226990562,G1,-3.988199999999997,70.13520000000001,8.0,4.0,12.0,11.0,0.0,0.0,0.0,0.0,234.34,125.63792153465816,-1.8049992523503188e-06
3-(dodecyldimethylazaniumyl)-2-hydroxypropane-1-sulfonate,CCCCCCCCCCCC[N+](C)(C)CC(O)C[S]([O-])(=O)=O,0.2865181043,G1,2.889800000000001,94.25740000000008,4.0,1.0,6.0,15.0,0.0,0.0,0.0,0.0,77.43,142.97099977721066,3.621785661479755
potassium bromide,[K+].[Br-],0.7556754335,G1,-5.992,0.0,0.0,0.0,2.0,0.0,0.0,0.0,0.0,0.0,0.0,66.80374456771379,0.0
2-methyl-5-nitrobenzene-1-sulfonic acid,Cc1ccc(cc1[S](O)(=O)=O)[N+]([O-])=O,0.4924399529,G1,1.1499200000000005,47.64800000000001,4.0,1.0,7.0,2.0,1.0,0.0,0.0,1.0,97.51,80.07795696643399,3.4429387680106798
chromium(3+) ion acetate dihydroxide,[Cr+3].CC([O-])=O.CC([O-])=O.CC([O-])=O,0.4692256086,G1,-3.7338999999999976,32.04299999999999,6.0,0.0,7.0,0.0,0.0,0.0,0.0,0.0,120.39,86.3164044555771,-4.4999999833333336e-08
(2R)-2-(2-chlorophenyl)-2-hydroxyacetic acid,O[C@@H](C(O)=O)c1ccccc1Cl,-0.4390279004999999,G1,1.458,44.04760000000002,2.0,2.0,4.0,2.0,1.0,0.0,0.0,1.0,57.53,74.21454317960763,3.0227910918592995
caesium(1+) ion iodide,[I-].[Cs+],0.4112261076,G1,-5.992,0.0,0.0,0.0,2.0,0.0,0.0,0.0,0.0,0.0,0.0,89.81705932153318,0.0
"1-ethenyl-3-methyl-2,3-dihydro-1H-imidazol-1-ium chloride",[Cl-].CN1C[NH+](C=C)C=C1,0.6585802853,G1,-3.607099999999998,32.92969999999999,1.0,1.0,3.0,1.0,0.0,0.0,1.0,1.0,7.680000000000001,61.851684974871,6.399999148000115e-07
2-amino-3-sulfanylpropanoic acid hydrochloride,[Cl-].N[C@@H](CS)C(O)=O.[H+],0.6219271018,G5,-3.5553999999999983,30.5762,3.0,3.0,5.0,2.0,0.0,0.0,0.0,0.0,63.32,60.55774009132193,-1.799999899875006e-07
butan-1-ol,CCCCO,-0.0504090528,G5,0.7787999999999999,21.9938,1.0,1.0,1.0,2.0,0.0,0.0,0.0,0.0,20.23,32.62831112321538,2.19060968716425
disodium dioxomolybdenumbis(olate),[Na+].[Na+].[O-][Mo]([O-])(=O)=O,0.5020204465,G1,-8.610100000000001,1.373,4.0,0.0,7.0,0.0,0.0,0.0,0.0,0.0,80.25999999999999,88.59776630628264,-7.999999835000003e-08
iron(3+) chloride sulfate,[Cl].[Fe].[O-][S]([O-])(=O)=O,0.540234161,G5,-0.6509999999999998,16.3276,4.0,0.0,7.0,0.0,0.0,0.0,0.0,0.0,80.25999999999999,57.754896076497786,-7.999999835000003e-08
iron(3+) ion trichloride,[Cl-].[Cl-].[Cl-].[Fe+3],0.6028517968,G5,-8.990499999999999,0.0,0.0,0.0,4.0,0.0,0.0,0.0,0.0,0.0,0.0,54.42337778977272,-0.0
iron(+2) cation sulfate,[Fe++].[O-][S]([O-])(=O)=O,0.6313327107,G5,-1.3405,10.4746,4.0,0.0,6.0,0.0,0.0,0.0,0.0,0.0,80.25999999999999,45.60180282394836,0.0
sodium 3-({3-methoxy-4-[(4-methoxyphenyl)diazenyl]phenyl}diazenyl)benzenesulfonate,[Na+].COc1ccc(cc1)N=Nc2ccc(cc2OC)N=Nc3cccc(c3)[S]([O-])(=O)=O,-0.8354591701,G3,2.442700000000001,108.7452,9.0,0.0,11.0,7.0,3.0,0.0,0.0,3.0,125.1,201.4381575411628,3.413328280896666e-06
Pyrithione sodium,[Na+].[O-]N1C=CC=CC1=S,0.6370124426,G3,-1.4325099999999993,34.031,3.0,0.0,4.0,0.0,1.0,0.0,0.0,1.0,27.99,80.38147470862961,6.399999377333394e-07
"sodium (2R)-2-[(1S)-1,2-dihydroxyethyl]-4-hydroxy-5-oxo-2,5-dihydrofuran-3-olate",[Na+].OC[C@H](O)C1OC(=O)[C-](O)C1=O,0.5110430921,G3,-5.257409999999997,33.15839999999999,6.0,3.0,7.0,2.0,0.0,1.0,1.0,1.0,104.06,95.79082075517776,1.439999606400111e-06
nickel(2+) ion dichloride,[Cl-].[Cl-].[Ni++],0.6949333776000001,G3,-5.9945,0.0,0.0,0.0,3.0,0.0,0.0,0.0,0.0,0.0,0.0,41.72141688471463,-0.0
3-methylbut-2-en-1-ol,CC(C)=CCO,-0.128994642,G1,0.9449,26.51679999999999,1.0,1.0,1.0,1.0,0.0,0.0,0.0,0.0,20.23,38.30365020542773,3.1374298786373527
calcium disulfamate,[Ca++].N[S]([O-])(=O)=O.N[S]([O-])(=O)=O,0.4388612161999999,G1,-3.5702,33.5232,6.0,2.0,11.0,0.0,0.0,0.0,0.0,0.0,166.43999999999997,93.70371649755,-1.0666666593333335e-07