Name,SMILES,Solubility,Group,MolLogP,MolMR,NumHAcceptors,NumHDonors,NumHeteroatoms,NumRotatableBonds,NumAromaticRings,NumSaturatedRings,NumAliphaticRings,RingCount,TPSA,LabuteASA,BalabanJ
nithiazide,CCNC(=O)Nc1sc(cn1)[N+]([O-])=O,-2.8578,G1,1.1927,51.4638,5.0,2.0,8.0,3.0,1.0,0.0,0.0,1.0,97.16,83.30046290380443,2.594539636377339
"1,2-ethanediamine, n,n'-bis(phenylmethyl)-",C(CNCc1ccccc1)NCc2ccccc2,-1.7865,G3,2.5660000000000007,76.29740000000004,2.0,2.0,2.0,7.0,2.0,0.0,0.0,2.0,24.06,109.04799015036352,1.5431740953316218
fenaminosulf,[Na+].CN(C)c1ccc(cc1)N=N[S]([O-])(=O)=O,-1.0991,G1,-1.6994999999999976,54.98220000000002,5.0,0.0,8.0,3.0,1.0,0.0,0.0,1.0,85.16,116.54531200636367,2.2499990861253845e-06
"benzene, 1-methoxy-4-(2-propenyl)-",COc1ccc(CC=C)cc1,-2.9209,G1,2.4237,46.89500000000002,1.0,0.0,1.0,3.0,1.0,0.0,0.0,1.0,9.23,67.31511377440603,2.7366739543410024
cyclopentylproprionic acid,OC(=O)CCC1CCCC1,-1.7691,G1,2.0414000000000003,38.8278,1.0,1.0,2.0,3.0,0.0,1.0,1.0,1.0,37.3,61.24377052731636,2.0664853449426195
"butanedioic acid, dibutyl ester",CCCCOC(=O)CCC(=O)OCCCC,-3.0006,G1,2.4532000000000007,60.968000000000046,4.0,0.0,4.0,9.0,0.0,0.0,0.0,0.0,52.60000000000001,97.30374894529356,3.3998242191485164
diethyl maleate,CCOC(=O)\C=C/C(=O)OCC,-1.0899,G3,0.6688,42.40600000000002,4.0,0.0,4.0,4.0,0.0,0.0,0.0,0.0,52.60000000000001,71.15437745552283,3.728160409956725
diethylhexanedioate,CCOC(=O)CCCCC(=O)OCC,-1.6795,G1,1.673,51.73400000000004,4.0,0.0,4.0,7.0,0.0,0.0,0.0,0.0,52.60000000000001,84.57386471650032,3.2823051857661723
decamethyltetrasiloxane,C[Si](C)(C)O[Si](C)(C)O[Si](C)(C)O[Si](C)(C)C,-7.6637,G1,4.109600000000003,84.91100000000004,3.0,0.0,7.0,6.0,0.0,0.0,0.0,0.0,27.69,111.6282859008776,4.590458727161032
dicrotophos,CO[P](=O)(OC)OC(/C)=C/C(=O)N(C)C,0.6249,G1,1.3959,55.16050000000003,5.0,0.0,7.0,5.0,0.0,0.0,0.0,0.0,65.07000000000001,89.41584492966442,4.5464432183205945
3-iodopropionic acid,OC(=O)CCI,-0.43,G1,0.8961000000000001,31.139799999999997,1.0,1.0,3.0,2.0,0.0,0.0,0.0,0.0,37.3,49.68672922990618,2.8312571099313644
malonic acid,OC(=O)CC(O)=O,0.8652,G3,-0.4543,19.8886,2.0,2.0,4.0,2.0,0.0,0.0,0.0,0.0,74.6,39.38064696110232,3.318019590380522
"4-thiazolidinone, 2-thioxo-",O=C1CSC(=S)N1,-1.7723,G1,0.1343,33.198699999999995,3.0,1.0,4.0,0.0,0.0,1.0,1.0,1.0,29.1,50.65657865931546,2.5537050272065858
2-thiouracil,O=C1NC(=S)NC=C1,-2.2573,G3,0.4324899999999999,32.247400000000006,2.0,2.0,4.0,0.0,1.0,0.0,0.0,1.0,48.65,50.39100142863863,3.5021170388304435
2-hydroxypyridine,O=C1NC=CC=C1,1.0218,G1,0.3749,27.0627,1.0,1.0,2.0,0.0,1.0,0.0,0.0,1.0,32.86,40.81257320048724,3.27532977603021
"acetamide, n-(2-hydroxyethyl)-",CC(=O)NCCO,0.9867,G1,-0.8852,25.76949999999999,2.0,2.0,3.0,2.0,0.0,0.0,0.0,0.0,49.33,42.33969540686719,2.8219389370591843
"1,2-hydrazinecarbothioamide",NC(=S)NNC(N)=S,-1.7965,G1,-1.4322,39.84219999999999,2.0,4.0,6.0,0.0,0.0,0.0,0.0,0.0,76.1,57.5713954181124,3.1818458670936187
nabam,[Na+].[Na+].[S-]C(=S)NCCNC([S-])=S,-0.1078,G1,-6.162799999999998,55.93140000000001,4.0,2.0,8.0,3.0,0.0,0.0,0.0,0.0,24.06,138.7882948048726,-4.049999451000077e-07
piperazine hydrochloride,[H+].[H+].[Cl-].[Cl-].C1CNCCN1,0.4112,G1,-6.587799999999998,27.963399999999996,2.0,2.0,4.0,0.0,0.0,1.0,1.0,1.0,24.06,65.20375382879612,-4.4999998987500026e-08
n-hexyl acetate,CCCCCCOC(C)=O,-2.451,G1,2.1298000000000004,40.775000000000006,2.0,0.0,2.0,5.0,0.0,0.0,0.0,0.0,26.3,62.56891315815644,2.8385891218139165
"1-hexanamine, n-hexyl-",CCCCCCNCCCCCC,-3.1574,G1,3.736600000000003,61.15370000000006,1.0,1.0,1.0,10.0,0.0,0.0,0.0,0.0,12.03,84.30347646980029,2.758149818433293
triethylene glycol butyl ether,CCCCOCCOCCOCCO,0.6855,G1,0.8286,54.45080000000005,4.0,1.0,4.0,11.0,0.0,0.0,0.0,0.0,47.92,86.15859949811568,2.7847655305545773
kepone,ClC1(Cl)C2(Cl)C3(Cl)C4(Cl)C(=O)C5(Cl)C3(Cl)C1(Cl)C5(Cl)C24Cl,-5.2594,G1,4.6182,88.11599999999999,1.0,0.0,11.0,0.0,0.0,6.0,6.0,6.0,17.07,168.18875865861338,2.0846484126260205
butabarbital sodium,[Na+].CCC(C)C1(CC)C(=O)NC(=O)[N-]C1=O,0.1528,G1,-1.4169999999999996,54.08370000000002,3.0,1.0,6.0,3.0,0.0,1.0,1.0,1.0,77.34,117.01558919392916,2.2499991566253275e-06
"1,3-dioxolane-4,4-diacetic acid, 5-oxo-",OC(=O)CC1(CC(O)=O)OCOC1=O,-0.611,G3,-0.7944999999999998,39.280600000000014,5.0,2.0,7.0,4.0,0.0,1.0,1.0,1.0,110.13,78.22319682421706,2.8308892123975444
dsma,[Na+].[Na+].C[As]([O-])([O-])=O,0.3711,G1,-8.285800000000002,12.3045,3.0,0.0,6.0,0.0,0.0,0.0,0.0,0.0,63.19,89.45085105031028,-7.999999807500005e-08
fluoroacetic acid,OC(=O)CF,1.1077,G1,0.0405,13.6108,1.0,1.0,3.0,1.0,0.0,0.0,0.0,0.0,37.3,28.22548439739217,2.847378923087672
dl-allothreonine,CC(O)C(N)C(O)=O,0.067,G5,-1.2208999999999997,27.291999999999994,3.0,3.0,4.0,2.0,0.0,0.0,0.0,0.0,83.55000000000001,46.92395767246788,3.637682547839839
d-tartaric acid,O[C@@H]([C@H](O)C(O)=O)C(O)=O,0.8236,G1,-2.1226,27.2852,4.0,4.0,6.0,3.0,0.0,0.0,0.0,0.0,115.06,55.33405657989094,4.069511908932011
"benzamide, 2-methyl-3,5-dinitro-",Cc1c(cc(cc1[N+]([O-])=O)[N+]([O-])=O)C(N)=O,-2.3525,G1,0.9103200000000002,53.0057,5.0,1.0,8.0,3.0,1.0,0.0,0.0,1.0,129.37,88.96865159034628,3.5727545380551327
flumethazide,N[S](=O)(=O)c1cc2c(NC=N[S]2(=O)=O)cc1C(F)(F)F,-0.8186,G1,0.4953000000000004,62.11769999999999,5.0,2.0,12.0,1.0,1.0,0.0,1.0,2.0,118.69,110.9586895548507,2.890827149181857
thiabendazole,[nH]1c2ccccc2nc1c3cscn3,-3.6048,G2,2.686400000000001,57.20170000000002,3.0,1.0,4.0,1.0,3.0,0.0,0.0,3.0,41.57,84.458981510615,2.2440947752499047
"2,4-des",O[S](=O)(=O)OCCOc1ccc(Cl)cc1Cl,-0.0601,G1,2.1916,59.45760000000002,4.0,1.0,8.0,5.0,1.0,0.0,0.0,1.0,72.83,102.83255014716592,2.434902784656965
"3,4,5-trihydroxybenzoic acid",OC(=O)c1cc(O)c(O)c(O)c1,-1.1552,G1,0.5015999999999998,38.39570000000001,4.0,4.0,5.0,1.0,1.0,0.0,0.0,1.0,97.99,67.13480234272139,3.306535412749064
dulcin,CCOc1ccc(NC(N)=O)cc1,-2.173,G1,1.5759,50.81710000000001,2.0,2.0,4.0,3.0,1.0,0.0,0.0,1.0,64.35,76.6910496728582,2.635972640607562
sodium succinate,[Na+].[Na+].[O-]C(=O)CCC([O-])=O,0.0914,G5,-8.725600000000002,19.247999999999998,4.0,0.0,6.0,3.0,0.0,0.0,0.0,0.0,80.25999999999999,102.57238832092288,-2.449999807500016e-07
potassium cyanide,[K+].[C-]#N,1.0436,G1,-2.89963,4.968,1.0,0.0,2.0,0.0,0.0,0.0,0.0,0.0,23.79,62.05439540466084,0.0
octamethylpyrophosphoramide,CN(C)[P](=O)(O[P](=O)(N(C)C)N(C)C)N(C)C,0.5433,G1,1.4655999999999998,71.04600000000005,3.0,0.0,9.0,6.0,0.0,0.0,0.0,0.0,56.330000000000005,104.42410355839948,5.391868472314589
vicine,NC1=NC(=O)C(=C(N)N1)O[C@@H]2O[C@H](CO)[C@@H](O)[C@H](O)[C@H]2O,-1.4832,G1,-3.886999999999999,68.0777,10.0,7.0,11.0,3.0,1.0,1.0,1.0,2.0,197.17,117.2998495761074,2.245409805545388
"1,3-bis(2-chloroet)-1-nitrosourea",ClCCNC(=O)N(CCCl)N=O,-1.7285,G1,1.157,47.33970000000001,3.0,1.0,7.0,5.0,0.0,0.0,0.0,0.0,61.77,79.94163789749997,3.76615173955013
"1,6-dioxaspiro[4,4]nonane",C1COC2(C1)CCCO2,-0.1078,G1,1.3035,33.10299999999999,2.0,0.0,2.0,0.0,0.0,2.0,2.0,2.0,18.46,55.1443318661645,2.04093977448264
"indeno(1,2,3-cd)pyrene",c1ccc2c(c1)c3ccc4ccc5cccc6cc2c3c4c56,-9.1627,G1,6.2314000000000025,94.57600000000004,0.0,0.0,0.0,0.0,5.0,0.0,1.0,6.0,0.0,127.50668464737296,2.0282017866463837
"7h-dibenzo(c,g)carbazole",[nH]1c2ccc3ccccc3c2c4c1ccc5ccccc45,-6.6277,G1,5.627500000000004,90.81670000000004,0.0,1.0,1.0,0.0,5.0,0.0,0.0,5.0,15.79,121.3672216674521,2.178301949101568
benzo(c)phenanthrene,c1ccc2c(c1)ccc3ccc4ccccc4c23,-7.8207,G1,5.146200000000003,78.96000000000005,0.0,0.0,0.0,0.0,4.0,0.0,0.0,4.0,0.0,105.4763967147026,2.3809343150199185
"benz(a,j)aceanthrylene",c1ccc2c(c1)ccc3c2cc4cccc5c6ccccc6c3c45,-8.4806,G1,6.793600000000004,103.39,0.0,0.0,0.0,0.0,5.0,0.0,1.0,6.0,0.0,139.52765976723742,1.9505429539969088
"4,5-methylenephenanthrene",C1c2cccc3ccc4cccc1c4c23,-5.2379,G1,3.8972000000000016,64.26000000000003,0.0,0.0,0.0,0.0,3.0,0.0,1.0,4.0,0.0,88.15384314383473,2.42195639158053
benzo(j)fluoranthene,c1ccc2c(c1)ccc3c4cccc5cccc(c45)c23,-8.004,G1,5.640400000000003,85.88400000000004,0.0,0.0,0.0,0.0,4.0,0.0,1.0,5.0,0.0,116.8459952355022,2.0829764986101216
benzo(b)fluoranthene,c1ccc2c(c1)cc3c4ccccc4c5cccc2c35,-8.2259,G1,5.640400000000003,85.88400000000003,0.0,0.0,0.0,0.0,4.0,0.0,1.0,5.0,0.0,116.8459952355022,2.120569654932486
benzo(k)fluoranthene,c1ccc2cc3c4cccc5cccc(c3cc2c1)c45,-8.4989,G3,5.640400000000003,85.88400000000003,0.0,0.0,0.0,0.0,4.0,0.0,1.0,5.0,0.0,116.8459952355022,2.022617790879174
"14h-dibenzo[a,j]phenothiazine",N1c2c(Sc3ccc4ccccc4c13)ccc5ccccc25,-7.9081,G1,6.201200000000003,95.3017,2.0,1.0,2.0,0.0,4.0,0.0,1.0,5.0,12.03,132.51896744447546,1.80413923819318
"7h-dibenzo[c,h]phenothiazine",N1c2ccc3ccccc3c2Sc4c1ccc5ccccc45,-6.8786,G1,6.201200000000003,95.30170000000004,2.0,1.0,2.0,0.0,4.0,0.0,1.0,5.0,12.03,132.5189674444755,1.8041392381931805
12h-benzo[c]phenothiazine,N1c2ccccc2Sc3ccc4ccccc4c13,-5.8957,G1,5.048000000000002,77.79570000000002,2.0,1.0,2.0,0.0,3.0,0.0,1.0,4.0,12.03,109.83730291274026,1.9787199317432071
7h-benzo[c]phenothiazine,N1c2ccccc2Sc3c1ccc4ccccc34,-6.5727,G1,5.048000000000003,77.79570000000004,2.0,1.0,2.0,0.0,3.0,0.0,1.0,4.0,12.03,109.83730291274028,1.978719931743207
"dibenz(a,h)acridine",c1ccc2c(c1)ccc3nc4c(ccc5ccccc45)cc23,-6.2447,G1,5.694400000000004,94.26100000000004,1.0,0.0,1.0,0.0,5.0,0.0,0.0,5.0,12.89,127.37770922738432,2.0194254860819045
phenanthridine,c1ccc2c(c1)cnc3ccccc23,-2.7763,G1,3.388000000000001,59.24900000000002,1.0,0.0,1.0,0.0,3.0,0.0,0.0,3.0,12.89,82.0143801639139,2.610318687415942
"1h-1,2,3-triazolo[4,5-d]pyrimidine",[nH]1nc2cncnc2n1,-0.2319,G1,-0.2521000000000001,29.4787,4.0,1.0,5.0,0.0,2.0,0.0,0.0,2.0,67.35,50.13772713284197,2.9546597902851044
"1,4-diazabicyclo(2,2,2)octane  (dabco)",C1CN2CCN1CC2,0.6033,G1,-0.3824000000000001,32.87999999999999,2.0,0.0,2.0,0.0,0.0,3.0,3.0,3.0,6.48,50.071966633160855,2.0315872925159697
iso-oxazole,o1cccn1,0.3827,G1,0.6746000000000001,16.503,2.0,0.0,2.0,0.0,1.0,0.0,0.0,1.0,26.03,29.396736670289638,3.1250000000000004
pyridazine,c1ccnnc1,1.0964,G1,0.4765999999999999,22.032,2.0,0.0,2.0,0.0,1.0,0.0,0.0,1.0,25.78,35.83915264979472,3.000000000000001
pyrimidine,c1cncnc1,1.0964,G1,0.4765999999999999,22.032,2.0,0.0,2.0,0.0,1.0,0.0,0.0,1.0,25.78,35.870699081389986,3.000000000000001
cycloheptane,C1CCCCCC1,-3.5149,G1,2.730700000000001,32.31899999999998,0.0,0.0,0.0,0.0,0.0,1.0,1.0,1.0,0.0,45.92307256067998,2.0416666666666665
thionazin,CCO[P](=S)(OCC)Oc1cnccn1,-2.338,G1,2.1529,60.19700000000002,6.0,0.0,7.0,6.0,1.0,0.0,0.0,1.0,53.47,94.05103133071,2.706849273086979
phosphamidon,CCN(CC)C(=O)/C(Cl)=C(/C)O[P](=O)(OC)OC,0.5233,G1,2.7426000000000013,69.19050000000004,5.0,0.0,8.0,7.0,0.0,0.0,0.0,0.0,65.07000000000001,112.44899538533927,5.01806028081648
demeton-o,CCO[P](=S)(OCC)OCCSCC,-3.634,G1,3.053600000000001,66.48800000000004,5.0,0.0,6.0,9.0,0.0,0.0,0.0,0.0,27.69,96.13751964570464,3.7767972529836142
"1,2:3,4-diepoxybutane dl",C1OC1C2CO2,1.065,G1,-0.2159999999999999,19.48,2.0,0.0,2.0,1.0,0.0,2.0,2.0,2.0,25.06,36.04950552297468,1.9155467020454344
"l-tyrosine, 3,5-dibromo-",N[C@@H](Cc1cc(Br)c(O)c(Br)c1)C(O)=O,-1.9281,G1,1.8716,62.82200000000001,3.0,3.0,6.0,3.0,1.0,0.0,0.0,1.0,83.55000000000001,103.35120497541804,2.9237270307423464
oxydemeton methyl,CC[S](=O)CCS[P](=O)(OC)OC,0.6086,G1,1.8891,57.63290000000004,5.0,0.0,7.0,7.0,0.0,0.0,0.0,0.0,52.60000000000001,85.49994132723387,3.743709894751944
hydrazine,NN,1.4942,G1,-1.1812,8.3748,2.0,2.0,2.0,0.0,0.0,0.0,0.0,0.0,52.04,13.024226327693349,1.0
meparfynol carbamate,CCC(C)(OC(N)=O)C#C,-0.9456,G1,0.8836000000000002,38.1974,2.0,1.0,3.0,2.0,0.0,0.0,0.0,0.0,52.32,60.54308713263183,4.099978336000516
potassium sodium tartrate,[Na+].[K+].O[C@H]([C@@H](O)C([O-])=O)C([O-])=O,0.3984,G4,-10.784,22.0276,6.0,2.0,8.0,3.0,0.0,0.0,0.0,0.0,120.72,132.67002089796551,-4.049999586000043e-07
"1,1,1-trifluoro-2,2-dichloroethane",FC(F)(F)C(Cl)Cl,-1.8623,G1,2.3524000000000003,21.549,0.0,0.0,5.0,0.0,0.0,0.0,0.0,0.0,0.0,48.20733180476821,3.5411969650799016
2-chlorovinyl diethyl phosphate,CCO[P](=O)(OCC)O\C=C\Cl,-1.3316,G1,2.8941000000000017,46.93650000000002,4.0,0.0,6.0,6.0,0.0,0.0,0.0,0.0,44.760000000000005,77.06787115750572,4.07767269290778
bromacil,CCC(C)N1C(=O)NC(=C(Br)C1=O)C,-2.5057,G3,1.57852,58.76170000000002,3.0,1.0,5.0,2.0,1.0,0.0,0.0,1.0,54.86,90.09597294569724,3.5290815358714664
isocil,CC(C)N1C(=O)NC(=C(Br)C1=O)C,-2.0604,G1,1.1884199999999998,54.144700000000014,3.0,1.0,5.0,1.0,1.0,0.0,0.0,1.0,54.86,83.73103083130063,3.641474186869312
mexacarbate,CNC(=O)Oc1cc(C)c(N(C)C)c(C)c1,-3.3469,G1,2.08764,65.32670000000003,3.0,1.0,4.0,2.0,1.0,0.0,0.0,1.0,41.57,96.20581898923864,3.0480394338762635
isoleucine,CCC(C)C(N)C(O)=O,-0.5033,G3,0.4443999999999999,35.06619999999998,2.0,2.0,3.0,3.0,0.0,0.0,0.0,0.0,63.32,54.85960814906508,3.716136771182721
5-chlorosalicylic acid,OC(=O)c1cc(Cl)ccc1O,-1.237,G2,1.7437999999999998,40.07610000000001,2.0,2.0,4.0,1.0,1.0,0.0,0.0,1.0,57.53,67.84960106521103,3.232208870305491
1-fluoronaphthalene,Fc1cccc2ccccc12,-3.4527,G1,2.978900000000001,43.90600000000002,0.0,0.0,1.0,0.0,2.0,0.0,0.0,2.0,0.0,64.2786030541584,2.9131611636048604
"acetamide, n-(4-fluoro-2-methylphenyl)-",CC(=O)Nc1ccc(F)cc1C,-1.3593,G1,2.0925199999999995,45.44070000000002,1.0,1.0,3.0,1.0,1.0,0.0,0.0,1.0,29.1,70.40314914926483,2.9348021246299894
"acetamide, n-(2-fluoro-4-methylphenyl)-",CC(=O)Nc1ccc(C)cc1F,-1.7403,G1,2.0925199999999995,45.440700000000014,1.0,1.0,3.0,1.0,1.0,0.0,0.0,1.0,29.1,70.40314914926482,2.9348021246299894
"1,2,4,5-tetrafluorobenzene",Fc1cc(F)c(F)cc1F,-2.3757,G1,2.2430000000000003,26.274,0.0,0.0,4.0,0.0,1.0,0.0,0.0,1.0,0.0,54.09354473120191,3.2824629074535228
a-aminocaproic acid,CCCC[C@H](N)C(O)=O,-1.0387,G1,0.5884999999999998,35.13619999999998,2.0,2.0,3.0,4.0,0.0,0.0,0.0,0.0,63.32,54.85960814906508,3.2659073992264416
chlorogenic acid,O[C@@H]1C[C@](O)(C[C@@H](OC(=O)\C=C\c2ccc(O)c(O)c2)[C@@H]1O)C(O)=O,-0.9473,G1,-0.6459000000000004,82.51880000000001,8.0,6.0,9.0,4.0,1.0,1.0,1.0,2.0,164.75,141.58738202052004,2.05888368559587
leucine,CC(C)CC(N)C(O)=O,-1.0456,G5,0.4443999999999999,35.06619999999998,2.0,2.0,3.0,3.0,0.0,0.0,0.0,0.0,63.32,54.85960814906508,3.5016884512730915
cyclohexyl methylphosphonofluoridate,C[P](F)(=O)OC1CCCCC1,-1.6875,G1,3.1281000000000017,42.59650000000002,2.0,0.0,4.0,2.0,0.0,1.0,1.0,1.0,26.3,66.70076413209574,2.301757339685183
o-fluorobenzyl chloride,Fc1ccccc1CCl,-2.541,G1,2.5645000000000007,35.95700000000001,0.0,0.0,2.0,1.0,1.0,0.0,0.0,1.0,0.0,58.26514686370148,3.0065240073265844
1-chloro-2-fluorobenzene,Fc1ccccc1Cl,-2.4157,G1,2.4791000000000007,31.41,0.0,0.0,2.0,0.0,1.0,0.0,0.0,1.0,0.0,51.90020474930487,3.134861511345448
"benzene, 1-fluoro-4-iodo-",Fc1ccc(I)cc1,-3.1257,G1,2.430300000000001,39.11700000000001,0.0,0.0,2.0,0.0,1.0,0.0,0.0,1.0,0.0,60.85877664346683,3.0324555320336755
fluoroethane,CCF,-1.3477,G1,0.9758,11.649000000000004,0.0,0.0,1.0,0.0,0.0,0.0,0.0,0.0,0.0,19.269728545152397,1.6329931618554523
"l-histidine, 3-methyl-",Cn1cncc1C[C@H](N)C(O)=O,0.0727,G1,-0.6255000000000002,42.5232,4.0,2.0,5.0,3.0,1.0,0.0,0.0,1.0,81.14000000000001,69.82559801489202,2.636975221308557
benzenediazonium hexafluophosphate (1-),F[P-](F)(F)(F)(F)F.N#[N+]c1ccccc1,-1.4438,G1,5.553580000000002,44.75400000000002,1.0,0.0,9.0,0.0,1.0,0.0,0.0,1.0,28.15,80.37911299911717,2.64999996436756e-07
2-fluoroethanol,OCCF,1.1934,G1,-0.0518,13.060800000000002,1.0,1.0,2.0,1.0,0.0,0.0,0.0,0.0,20.23,24.063962297348407,1.9747448713915892
isopestox,CC(C)N[P](F)(=O)NC(C)C,-0.3574,G1,2.06,45.257900000000014,1.0,2.0,5.0,4.0,0.0,0.0,0.0,0.0,41.13,67.35358080232638,3.907836095239563
"1,1,1-trifluoro-2-propanol",CC(O)C(F)(F)F,0.3094,G1,0.9295,17.7358,1.0,1.0,4.0,0.0,0.0,0.0,0.0,0.0,20.23,38.75997521759748,3.541196965079901
"1,1-dichloro-1,2,2,2-tetrafluoroethane",FC(F)(F)C(F)(Cl)Cl,-3.0961,G1,2.6496,21.6,0.0,0.0,6.0,0.0,0.0,0.0,0.0,0.0,0.0,52.37286720769444,4.020391543176799
"acetic acid, difluoro-",OC(=O)C(F)F,1.0176,G1,0.3361,13.6398,1.0,1.0,4.0,1.0,0.0,0.0,0.0,0.0,37.3,32.391019800318404,3.2575861612334887
andrenosterone,C[C@]12CC(=O)[C@H]3[C@@H](CCC4=CC(=O)CC[C@]34C)[C@@H]1CCC2=O,-3.4843,G1,3.2664000000000017,82.10700000000004,3.0,0.0,3.0,0.0,0.0,3.0,4.0,4.0,51.21,131.07984774079864,1.7719840088155432
4-fluoro-2-propyl-phenol,CCCc1cc(F)ccc1O,-1.887,G1,2.483800000000001,42.05980000000002,1.0,1.0,2.0,2.0,1.0,0.0,0.0,1.0,20.23,65.48599861780903,2.927939142435774
nidroxyzone,NC(=O)N(CCO)/N=C/c1oc(cc1)[N+]([O-])=O,-2.6852,G1,-0.1052999999999996,56.33160000000001,6.0,2.0,9.0,5.0,1.0,0.0,0.0,1.0,135.20000000000002,95.259415289211,2.733254794853641
"benzoic acid, 2-(trifluoromethyl)-",OC(=O)c1ccccc1C(F)(F)F,-1.5978,G1,2.403600000000001,38.40330000000001,1.0,1.0,5.0,1.0,1.0,0.0,0.0,1.0,37.3,71.61364940930865,3.2832639201778533
ethisterone,C[C@]12CCC(=O)C=C1CC[C@@H]3[C@@H]2CC[C@@]4(C)[C@H]3CC[C@@]4(O)C#C,-5.6576,G3,3.8826000000000023,90.49280000000005,2.0,1.0,2.0,0.0,0.0,3.0,4.0,4.0,37.3,139.2801469135596,1.7024099249747309
lithocholic acid,C[C@H](CCC(O)=O)[C@H]1CC[C@H]2[C@@H]3CC[C@@H]4C[C@H](O)CC[C@]4(C)[C@H]3CC[C@]12C,-6.0,G1,5.507100000000006,107.25760000000008,2.0,2.0,3.0,4.0,0.0,4.0,4.0,4.0,57.53,164.8595846492704,1.50972179567481
nandrolone,C[C@]12CC[C@H]3[C@@H](CCC4=CC(=O)CC[C@H]34)[C@@H]1CC[C@@H]2O,-1.9484,G1,3.4891000000000028,78.09980000000004,2.0,1.0,2.0,0.0,0.0,3.0,4.0,4.0,37.3,121.1860951785105,1.63039250262164
"azuleno[6,5-b]furan-2,6-(3h,4h)-dione, 3a,7,7a,8",C[C@H]1C[C@H]2OC(=O)[C@@H](C)[C@H]2[C@H](O)C3=C(C)C(=O)C[C@H]13,-1.945,G1,1.4703,68.13580000000003,4.0,1.0,4.0,0.0,0.0,2.0,3.0,3.0,63.6,112.37216731840054,2.0519233414309705
dl-isoleucine,CC[C@H](C)[C@@H](N)C(O)=O,-0.7875,G1,0.4443999999999999,35.06619999999998,2.0,2.0,3.0,3.0,0.0,0.0,0.0,0.0,63.32,54.85960814906508,3.716136771182721
"benzeneacetic acid, 2,5-dihydroxy-",OC(=O)Cc1cc(O)ccc1O,0.7037,G1,0.7248999999999999,41.11140000000002,3.0,3.0,4.0,2.0,1.0,0.0,0.0,1.0,77.76,68.70551070492198,2.9694149923977777
1h-purin-2-amine,Nc1ncc2[nH]cnc2n1,-1.21,G1,-0.0649000000000001,36.0961,4.0,2.0,5.0,0.0,2.0,0.0,0.0,2.0,80.48,56.32106271209873,2.860781632079713
"3-furanol, tetrahydro-",OC1CCOC1,1.055,G1,-0.2323999999999999,21.442799999999995,2.0,1.0,2.0,0.0,0.0,1.0,1.0,1.0,29.46,36.73602519919304,2.184105569636068
"benzoic acid, 4-fluoro-3-nitro-",OC(=O)c1ccc(F)c(c1)[N+]([O-])=O,-1.5809,G1,1.4320999999999997,40.01370000000001,3.0,1.0,6.0,2.0,1.0,0.0,0.0,1.0,80.44,71.57061221155939,3.267052212361691
m-fluorobenzyl chloride,Fc1cccc(CCl)c1,-2.5436,G1,2.5645000000000007,35.95700000000001,0.0,0.0,2.0,1.0,1.0,0.0,0.0,1.0,0.0,58.26514686370148,2.9368661023365914
2-propylpiperidine,CCC[C@H]1CCCCN1,-0.8493,G1,1.9286,40.54970000000001,1.0,1.0,1.0,2.0,0.0,1.0,1.0,1.0,12.03,57.83787685868463,2.077860755461056
"ethane, 1,1-difluoro-2-methoxy-",COCC(F)F,-0.2836,G1,0.8979000000000001,17.88,1.0,0.0,3.0,2.0,0.0,0.0,0.0,0.0,9.23,34.91375129198212,2.6272148478988635
2-cyanoguanidine,NC(N)=NC#N,-0.3087,G1,-1.2591199999999998,21.42280000000001,2.0,2.0,4.0,0.0,0.0,0.0,0.0,0.0,88.19,35.07187670358043,3.5072228538686434
3-aminopyridine,Nc1cccnc1,1.0263,G1,0.6638000000000001,28.6494,2.0,1.0,2.0,0.0,1.0,0.0,0.0,1.0,38.91,41.9909417974562,3.0214653097240864
n-(aminocarbonyl)glycine,NC(=O)NCC(O)=O,-0.5809,G1,-1.2607,25.2219,2.0,3.0,5.0,2.0,0.0,0.0,0.0,0.0,92.42000000000002,45.47616608952706,3.1818458670936187
".beta.-alanine, n-(aminocarbonyl)-",NC(=O)NCCC(O)=O,-0.8014,G1,-0.8706,29.8389,2.0,3.0,5.0,3.0,0.0,0.0,0.0,0.0,92.42000000000002,51.84110820392366,3.1028259423155773
d-borneol,CC1(C)C2CCC1(C)[C@@H](O)C2,-2.319,G1,2.1935,45.23580000000002,1.0,1.0,1.0,0.0,0.0,2.0,2.0,2.0,20.23,68.80630150253657,2.396254979141823
"(1r,4r)-(+)-camphor",CC1(C)[C@H]2CC[C@@]1(C)C(=O)C2,-3.1825,G1,2.401700000000001,44.23600000000002,1.0,0.0,1.0,0.0,0.0,2.0,2.0,2.0,17.07,68.17358985038433,2.4741517243797517
quinamine,O[C@@]12CCO[C@@]1(Nc3ccccc23)[C@@H]4C[C@@H]5CCN4C[C@@H]5C=C,-2.6706,G1,2.3127000000000004,89.03350000000005,4.0,2.0,4.0,2.0,1.0,4.0,5.0,6.0,44.73,136.680197795866,1.570266042750253