Name,SMILES,Solubility,Group,MolLogP,MolMR,NumHAcceptors,NumHDonors,NumHeteroatoms,NumRotatableBonds,NumAromaticRings,NumSaturatedRings,NumAliphaticRings,RingCount,TPSA,LabuteASA,BalabanJ
2-nitroethanol,OCC[N+]([O-])=O,1.0406,G1,-0.7445999999999999,18.9472,3.0,1.0,4.0,2.0,0.0,0.0,0.0,0.0,63.37,34.55140261692197,2.831257109931365
ethyl isopropyl ether,CCOC(C)C,-0.5607,G3,1.4313,26.761999999999983,1.0,0.0,1.0,2.0,0.0,0.0,0.0,0.0,9.23,39.31256471492286,2.6272148478988635
isopropyl formate,CC(C)OC=O,-0.6301,G1,0.5678,22.284999999999997,2.0,0.0,2.0,2.0,0.0,0.0,0.0,0.0,26.3,37.10914470057001,2.8141442217770303
3-chloroiodobenzene,Clc1cccc(I)c1,-3.55,G3,2.9446000000000003,44.16900000000001,0.0,0.0,2.0,0.0,1.0,0.0,0.0,1.0,0.0,66.99650746742228,3.077660437970554
"2,4-dihydroxypyridine",OC1=CC(=O)C=CN1,-1.2498,G1,0.0804999999999999,28.7275,2.0,2.0,3.0,0.0,1.0,0.0,0.0,1.0,53.09,45.60680695268326,3.277417459528498
"1,3-benzenedimethanol",OCc1cccc(CO)c1,-0.2328,G1,0.6712,38.287600000000005,2.0,2.0,2.0,2.0,1.0,0.0,0.0,1.0,40.46,59.749754852682194,2.8711457287957725
24pyrimidinedione6methyl,CC1=CC(=O)NC(=O)N1,-1.2557,G1,-0.6283800000000002,32.420399999999994,2.0,2.0,4.0,0.0,1.0,0.0,0.0,1.0,65.72,50.55868539587413,3.515622477176413
4-hydroxypyridine,O=C1C=CNC=C1,1.0218,G1,0.3749,27.0627,1.0,1.0,2.0,0.0,1.0,0.0,0.0,1.0,32.86,40.81257320048724,3.27532977603021
"2-propanol, 1,3-bis(3-methylbutoxy)-",CC(C)CCOCC(O)COCCC(C)C,-1.3662,G1,2.472700000000001,66.55480000000006,3.0,1.0,3.0,10.0,0.0,0.0,0.0,0.0,38.69,100.1398806117986,3.2103367863514576
"hexanedioic acid, monoethyl ester",CCOC(=O)CCCCC(O)=O,-0.3602,G1,1.1945,42.73680000000001,3.0,1.0,4.0,6.0,0.0,0.0,0.0,0.0,63.6,71.52466901039624,3.19249928713208
4-methyl-1-pentanol,CC(C)CCCO,-1.1286,G3,1.4149,31.15779999999998,1.0,1.0,1.0,3.0,0.0,0.0,0.0,0.0,20.23,45.35819535200859,2.6782577431647265
2-pentenoic acid,CC\C=C/C(O)=O,-0.2019,G1,1.0372,27.06679999999999,1.0,1.0,2.0,2.0,0.0,0.0,0.0,0.0,37.3,42.4651723054715,3.2641672832723474
propyl isopropyl ether,CCCOC(C)C,-1.3373,G1,1.8214,31.378999999999984,1.0,0.0,1.0,3.0,0.0,0.0,0.0,0.0,9.23,45.67750682931947,2.678257743164726
1-propylnitrate,CCCO[N+]([O-])=O,-1.5044,G1,0.6047,23.237399999999997,3.0,0.0,4.0,3.0,0.0,0.0,0.0,0.0,52.37,41.18969470810743,2.8219389370591843
3-bromopropanol,OCCCBr,0.0093,G1,0.7637,25.49679999999999,1.0,1.0,2.0,2.0,0.0,0.0,0.0,0.0,20.23,40.13091661446014,2.19060968716425
3-chloro-1-propanol,OCCCCl,0.4223,G1,0.6075999999999999,22.42279999999999,1.0,1.0,2.0,2.0,0.0,0.0,0.0,0.0,20.23,36.566635235700446,2.19060968716425
"ethane, 1-chloro-2-methoxy-",COCCCl,-0.0725,G1,0.8716,22.595999999999997,1.0,0.0,2.0,2.0,0.0,0.0,0.0,0.0,9.23,36.88594671301132,2.19060968716425
5-methyl-2-hexanol,CC(C)CCC(C)O,-1.375,G1,1.8034,35.75279999999999,1.0,1.0,1.0,3.0,0.0,0.0,0.0,0.0,20.23,51.7231374664052,2.9278193611827583
"3-isopentyloxy-propane-1,2-diol",CC(C)CCOCC(O)CO,-1.2101,G1,0.4022999999999999,43.36660000000001,3.0,2.0,3.0,6.0,0.0,0.0,0.0,0.0,49.69,67.9958585625047,3.014446818437732
"hexanedioic acid, dimethyl ester",COC(=O)CCCCC(=O)OC,-1.4629,G5,0.8927999999999998,42.500000000000014,4.0,0.0,4.0,5.0,0.0,0.0,0.0,0.0,52.60000000000001,71.8439804877071,3.211729783466108
methyl n-butyl ether,CCCCOC,-0.9907,G1,1.4329,26.78399999999999,1.0,0.0,1.0,3.0,0.0,0.0,0.0,0.0,9.23,39.31256471492286,2.3390923149762908
ethyl propyl ether,CCCOCC,-0.6806,G5,1.4329,26.78399999999999,1.0,0.0,1.0,3.0,0.0,0.0,0.0,0.0,9.23,39.31256471492286,2.3390923149762908
n-amyl acetate,CCCCCOC(C)=O,-1.8841,G1,1.7397,36.158,2.0,0.0,2.0,4.0,0.0,0.0,0.0,0.0,26.3,56.20397104375984,2.828868134909685
"1,3-propanediol, diacetate",CC(=O)OCCCOC(C)=O,-0.2046,G1,0.5026999999999999,37.883,4.0,0.0,4.0,4.0,0.0,0.0,0.0,0.0,52.6,65.47903837331049,3.0256083367235656
1-heptyne,CCCCCC#C,-3.0099,G1,2.1999000000000004,32.97499999999998,0.0,0.0,0.0,3.0,0.0,0.0,0.0,0.0,0.0,45.92812910606846,2.599038279224843
1-octyne,CCCCCCC#C,-3.662,G1,2.5900000000000007,37.592,0.0,0.0,0.0,4.0,0.0,0.0,0.0,0.0,0.0,52.29307122046507,2.646949873687806
n-tridecane,CCCCCCCCCCCCC,-7.5936,G1,5.317300000000005,62.13500000000006,0.0,0.0,0.0,10.0,0.0,0.0,0.0,0.0,0.0,85.11855640058886,2.758149818433293
n-pentadecane,CCCCCCCCCCCCCCC,-9.4464,G1,6.097500000000006,71.36900000000007,0.0,0.0,0.0,12.0,0.0,0.0,0.0,0.0,0.0,97.84844062938208,2.8079257388805243
1-pentadecanol,CCCCCCCCCCCCCCCO,-6.3476,G3,5.069900000000006,72.78080000000006,1.0,1.0,1.0,13.0,0.0,0.0,0.0,0.0,20.23,102.6426743815781,2.828262412638549
hexacosane,CCCCCCCCCCCCCCCCCCCCCCCCCC,-8.3339,G3,10.388599999999991,122.15600000000012,0.0,0.0,0.0,23.0,0.0,0.0,0.0,0.0,0.0,167.86280388774483,2.94691201256248
hexatriacontane,CCCCCCCCCCCCCCCCCCCCCCCCCCCCCCCCCCCC,-8.4746,G1,14.289599999999968,168.32599999999962,0.0,0.0,0.0,33.0,0.0,0.0,0.0,0.0,0.0,231.51222503171093,3.000382126868542
"1,1,1,2-tetrachloroethane",ClCC(Cl)(Cl)Cl,-2.1955,G3,2.5954000000000006,31.01,0.0,0.0,4.0,0.0,0.0,0.0,0.0,0.0,0.0,56.31725804975285,3.168489872670569
"acetic acid, dibromo-",OC(=O)C(Br)Br,0.9861,G1,1.1869,29.2778,1.0,1.0,4.0,1.0,0.0,0.0,0.0,0.0,37.3,51.79504420574866,3.2575861612334887
sulfasomizole,Cc1cc(N[S](=O)(=O)c2ccc(N)cc2)sn1,-1.0762,G1,1.83452,68.51390000000002,5.0,2.0,7.0,3.0,2.0,0.0,0.0,2.0,85.08,103.50506945329684,2.276726283674452
tetramethylurea,CN(C)C(=O)N(C)C,0.9349,G1,0.2296,32.76999999999998,1.0,0.0,3.0,0.0,0.0,0.0,0.0,0.0,23.550000000000004,49.88020892586648,3.65123357893369
tetrachlorophthalic acid,OC(=O)c1c(Cl)c(Cl)c(Cl)c(Cl)c1C(O)=O,-1.9264,G1,3.6966,60.4006,2.0,2.0,8.0,2.0,1.0,0.0,0.0,1.0,74.6,109.28586396029642,3.8318799145935873
resorufin,Oc1ccc2N=C3C=CC(=O)C=C3Oc2c1,-1.0277,G1,1.9984,58.56580000000002,4.0,1.0,4.0,0.0,1.0,0.0,2.0,3.0,63.330000000000005,90.12940739462712,2.4567938837279555
"4(1h)-pyrimidinone, 2,3-dihydro-5-methyl-2-thiox",CC1=CNC(=S)NC1=O,-2.4461,G1,0.74091,36.9844,2.0,2.0,4.0,0.0,1.0,0.0,0.0,1.0,48.65,56.75594354303524,3.523897718994017
1-cyclohexene-1-carboxylic acid,OC(=O)C1=CCCCC1,-1.2558,G1,1.5714,34.1868,1.0,1.0,2.0,1.0,0.0,0.0,1.0,1.0,37.3,54.1892253807355,2.5651030326084734
p-benzoquinone oxime,Oc1ccc(cc1)N=O,-1.5462,G1,1.7900999999999998,33.561800000000005,3.0,1.0,3.0,1.0,1.0,0.0,0.0,1.0,49.66,51.920368855923456,3.0097819477866
isopropyl propionate,CCC(=O)OC(C)C,-1.2906,G1,1.348,31.518999999999984,2.0,0.0,2.0,2.0,0.0,0.0,0.0,0.0,26.3,49.83902892936323,3.2455794433140843
ethyl t-butyl ether,CCOC(C)(C)C,-0.9302,G3,1.8214,31.37899999999998,1.0,0.0,1.0,1.0,0.0,0.0,0.0,0.0,9.23,45.67750682931947,3.154490065368808
"4h-1,3,5-dithiazine, dihydro-2,4,6-trimethyl-,",CC1NC(C)SC(C)S1,-1.3679,G1,2.094,46.703700000000026,3.0,1.0,3.0,0.0,0.0,1.0,1.0,1.0,12.03,65.35421268062188,2.3408516164378748
"1,3-diacetylurea",CC(=O)NC(=O)NC(C)=O,-0.3137,G1,-0.6214,33.029399999999995,3.0,2.0,5.0,0.0,0.0,0.0,0.0,0.0,75.27000000000001,57.78331015276336,3.6488831196816527
tridecanoic acid,CCCCCCCCCCCCC(O)=O,-3.8126,G1,4.382000000000003,64.09680000000006,1.0,1.0,2.0,11.0,0.0,0.0,0.0,0.0,37.3,94.07431225282866,2.894680969467644
thiometon,CCSCCS[P](=S)(OC)OC,-3.0905,G1,2.990000000000001,63.76000000000004,5.0,0.0,6.0,7.0,0.0,0.0,0.0,0.0,18.46,88.07911457776108,3.5223947479401634
fluoroacetamide,NC(=O)CF,1.1132,G1,-0.5588000000000002,15.1694,1.0,1.0,3.0,1.0,0.0,0.0,0.0,0.0,43.09,28.77114134220887,2.847378923087672
glycochenodeoxycholic acid,C[C@H](CCC(=O)NCC(O)=O)[C@H]1CC[C@H]2[C@@H]3[C@H](O)C[C@@H]4C[C@H](O)CC[C@]4(C)[C@H]3CC[C@]12C,-5.1546,G1,3.594100000000001,121.65710000000009,4.0,4.0,6.0,6.0,0.0,4.0,4.0,4.0,106.86,192.09508691391144,1.4383940208981985
acetyl benzoyl peroxide,CC(=O)OOC(=O)c1ccccc1,-2.4502,G1,1.3215,43.62350000000002,4.0,0.0,4.0,1.0,1.0,0.0,0.0,1.0,52.6,75.00565943752639,2.544573341953591
4-propylphenol,CCCc1ccc(O)cc1,-2.0276,G1,2.3447000000000005,42.10180000000002,1.0,1.0,1.0,2.0,1.0,0.0,0.0,1.0,20.23,61.3204632148828,2.693803452362809
"1,3,5-triazin-2(1h)-one, 4,6-diamino-",NC1=NC(=O)N=C(N)N1,-3.2291,G1,-1.6707,31.477500000000003,5.0,3.0,6.0,0.0,1.0,0.0,0.0,1.0,110.68,49.9316505564057,3.332334626732985
"1,3-dioxalane",C1COCO1,1.1303,G1,-0.0092999999999999,16.771000000000004,2.0,0.0,2.0,0.0,0.0,1.0,1.0,1.0,18.46,30.690394562107297,2.083333333333333
5-aminopentanoic acid,NCCCCC(O)=O,0.9313,G1,0.2000000000000001,30.54119999999999,2.0,2.0,3.0,4.0,0.0,0.0,0.0,0.0,63.32,48.49466603466847,2.822354554248032
l-homoserine,N[C@@H](CCO)C(O)=O,0.924,G1,-1.2193000000000005,27.313999999999997,3.0,3.0,4.0,3.0,0.0,0.0,0.0,0.0,83.55000000000001,46.92395767246788,3.318087197283996
simetone,CCNc1nc(NCC)nc(OC)n1,-1.7898,G1,0.7437999999999999,54.70640000000002,6.0,2.0,6.0,5.0,1.0,0.0,0.0,1.0,71.96000000000001,83.1283272310425,2.8800387311360462
hexamethylphosphoramide,CN(C)[P](=O)(N(C)C)N(C)C,0.7467,G1,0.7792999999999999,48.66750000000003,1.0,0.0,5.0,3.0,0.0,0.0,0.0,0.0,26.790000000000006,69.30169063779014,4.690791012693442
"ethanesulfonothioic acid, s-ethyl ester",CCS[S](=O)(=O)CC,-1.109,G1,1.0892,37.59280000000001,3.0,0.0,4.0,3.0,0.0,0.0,0.0,0.0,34.14,53.98254786452086,3.755111608192775
dibutyl dichloro tin,CCCC[Sn](Cl)(Cl)CCCC,-3.5188,G1,4.506400000000004,56.89000000000004,0.0,0.0,3.0,6.0,0.0,0.0,0.0,0.0,0.0,81.95465727676928,3.4340255805815305
"ethane, 1,2-dibromo-1,2-dichloro-",ClC(Br)C(Cl)Br,-2.5644,G1,2.9060000000000006,37.136,0.0,0.0,4.0,1.0,0.0,0.0,0.0,0.0,0.0,63.44582080727223,2.993497243478473
"acetamide, 2,2-dichloro-",NC(=O)C(Cl)Cl,-0.2558,G1,0.2754,24.6884,1.0,1.0,4.0,1.0,0.0,0.0,0.0,0.0,43.09,45.21213839304599,3.2575861612334887
1-nitroso-1-methylurea,CN(N=O)C(N)=O,-0.8548,G1,-0.3216999999999998,23.1414,3.0,1.0,5.0,1.0,0.0,0.0,0.0,0.0,75.75999999999999,40.03030761395146,3.551713608029699
"d-glucose, 2-deoxy-2-[(ethoxycarbonyl)amino]-",CCOC(=O)N[C@@H](C=O)[C@@H](O)[C@H](O)[C@H](O)CO,0.1139,G1,-2.6249999999999987,55.11590000000003,7.0,5.0,8.0,7.0,0.0,0.0,0.0,0.0,136.32,97.82217456498891,4.434827287389607
1-buten-3-yne,C=CC#C,-1.4648,G1,0.8055999999999999,19.03,0.0,0.0,0.0,0.0,0.0,0.0,0.0,0.0,0.0,26.14369973069439,2.9217836800202117
4-methyl-1-pentene,CC(C)CC=C,-3.2439,G3,2.2185,29.651999999999983,0.0,0.0,0.0,2.0,0.0,0.0,0.0,0.0,0.0,39.874358567628335,2.8141442217770303
"2(1h)-pyridinone, 1-methyl-",CN1C=CC=CC1=O,0.9621,G1,0.3852999999999998,31.68299999999999,2.0,0.0,2.0,0.0,1.0,0.0,0.0,1.0,22.0,47.38748680147917,3.3466073908691203
"benzene, iodyl-",O=[I](=O)c1ccccc1,-1.8416,G1,2.0536,40.53200000000002,2.0,0.0,3.0,1.0,1.0,0.0,0.0,1.0,34.14,60.04274075807905,3.126472681877308
"benzenamine, n,3-dimethyl-",CNc1cccc(C)c1,-2.05,G1,2.03672,40.72570000000001,1.0,1.0,1.0,1.0,1.0,0.0,0.0,1.0,12.03,55.71114953189822,2.9368661023365914
3-ethyl-5-methylphenol,CCc1cc(C)cc(O)c1,-1.7696,G1,2.26302,42.22180000000002,1.0,1.0,1.0,1.0,1.0,0.0,0.0,1.0,20.23,61.3204632148828,3.061688151345299
5-methyl-2-nitrophenol,Cc1ccc(c(O)c1)[N+]([O-])=O,-2.7505,G1,1.6088199999999997,39.49820000000002,3.0,1.0,4.0,1.0,1.0,0.0,0.0,1.0,63.37,63.243554708589386,3.1960696621259204
4-hydroxypteridine,O=C1N=CNc2nccnc12,-1.4716,G1,-0.2868999999999999,37.9537,4.0,1.0,5.0,0.0,2.0,0.0,0.0,2.0,71.53,61.15318167506198,3.0307899009392414
2-pteridinamine,Nc1ncc2nccnc2n1,-2.2979,G1,0.0019999999999998,39.540400000000005,5.0,1.0,5.0,0.0,2.0,0.0,0.0,2.0,77.58,62.33155027203094,2.828901215620696
octachlorocyclopentene,ClC1=C(Cl)C(Cl)(Cl)C(Cl)(Cl)C1(Cl)Cl,-6.5362,G1,5.2109,62.04300000000001,0.0,0.0,8.0,0.0,0.0,0.0,1.0,1.0,0.0,114.92971511475588,3.38504086711234
1-methyl uric acid,CN1C(=O)NC2=C(NC(=O)N2)C1=O,-1.5614,G1,-1.7568,44.7811,4.0,3.0,7.0,0.0,2.0,0.0,0.0,2.0,103.51,70.04065191620926,3.1928379794973214
"thiourea, 3-(nitrophenyl)-",NC(=S)Nc1cccc(c1)[N+]([O-])=O,-1.4499,G1,1.2503,53.5045,3.0,2.0,6.0,2.0,1.0,0.0,0.0,1.0,81.19,79.697854084219,2.9143561914867706
"1-ph-3,5-dime-4-nitrosopyrazole",Cc1nn(c2ccccc2)c(C)c1N=O,-3.7355,G1,2.8870400000000016,58.49300000000002,4.0,0.0,4.0,2.0,2.0,0.0,0.0,2.0,47.25,87.52034699554554,2.5990816045647405
anthracene-9-carboxylic acid,OC(=O)c1c2ccccc2cc3ccccc13,-3.4174,G1,3.691200000000001,68.41330000000002,1.0,1.0,2.0,1.0,3.0,0.0,0.0,3.0,37.3,98.11543014960378,2.606456150492522
tolyfluanide,CN(C)[S](=O)(=O)N(SC(F)(Cl)Cl)c1ccc(C)cc1,-5.5864,G1,3.314420000000002,79.40080000000003,3.0,0.0,9.0,5.0,1.0,0.0,0.0,1.0,40.620000000000005,126.33754771321703,3.241224032499649
"2,4,6-tri(tert-butyl)phenol",CC(C)(C)c1cc(c(O)c(c1)C(C)(C)C)C(C)(C)C,-3.875,G2,5.284700000000005,84.20680000000007,1.0,1.0,1.0,0.0,1.0,0.0,0.0,1.0,20.23,118.60494224445225,3.676482813059605
bensulide,CC(C)O[P](=S)(OC(C)C)SCCN[S](=O)(=O)c1ccccc1,-4.2014,G1,3.7726000000000015,100.81550000000004,6.0,1.0,9.0,10.0,1.0,0.0,0.0,1.0,64.63,148.05362106327618,2.553910805634569
dimethyltin dichloride,C[Sn](C)(Cl)Cl,-1.0407,G2,2.1658,29.187999999999988,0.0,0.0,3.0,0.0,0.0,0.0,0.0,0.0,0.0,43.76500459038964,3.0237157840738176
hexaethyl tetraphosphate,CCO[P](=O)(OCC)O[P](=O)(OCC)O[P](=O)(OCC)O[P](=O)(OCC)OCC,0.2956,G1,5.687600000000006,103.43700000000008,13.0,0.0,17.0,18.0,0.0,0.0,0.0,0.0,151.35,170.9739640496545,5.88708098496001
n-ethyl-n-nitrosourea,CCN(N=O)C(N)=O,-0.9547,G1,0.0684000000000001,27.758399999999995,3.0,1.0,5.0,2.0,0.0,0.0,0.0,0.0,75.75999999999999,46.39524972834807,3.692337093753961
"propanedioic acid, heptyl-",CCCCCCCC(C(O)=O)C(O)=O,-2.0411,G1,2.1323000000000003,52.13760000000003,2.0,2.0,4.0,8.0,0.0,0.0,0.0,0.0,74.6,83.9352417618786,3.622554555305487
octylmalonic acid,CCCCCCCCC(C(O)=O)C(O)=O,-2.92,G1,2.5224,56.75460000000003,2.0,2.0,4.0,9.0,0.0,0.0,0.0,0.0,74.6,90.3001838762752,3.5480303389238355
1-chloro-2-fluoroethane,FCCCl,-0.5291,G1,1.1947,16.695,0.0,0.0,2.0,1.0,0.0,0.0,0.0,0.0,0.0,29.57299477203406,1.9747448713915892
2-methyl-1-pentene,CCCC(C)=C,-3.033,G1,2.3626000000000005,29.721999999999984,0.0,0.0,0.0,2.0,0.0,0.0,0.0,0.0,0.0,39.87435856762834,2.831257109931365
"2,5-dimethyl-2,4-hexadiene",CC(C)=CC=C(C)C,-3.537,G1,2.918800000000002,38.862,0.0,0.0,0.0,1.0,0.0,0.0,0.0,0.0,0.0,51.914639764237286,3.760065916884882
glycidylaldehyde,O=CC1CO1,1.1423,G1,-0.4159,15.804000000000002,2.0,0.0,2.0,1.0,0.0,1.0,1.0,1.0,29.6,29.738371432644183,2.2145461012997294
o-chloroanisole,COc1ccccc1Cl,-2.4639,G1,2.3486,38.00400000000001,1.0,0.0,2.0,1.0,1.0,0.0,0.0,1.0,9.23,59.213156690282126,3.0065240073265844
"2-amino-4,6-dimethylpyrimidine",Cc1cc(C)nc(N)n1,-0.4884,G1,0.6756399999999999,35.91839999999999,3.0,1.0,3.0,0.0,1.0,0.0,0.0,1.0,51.8,53.94047400719592,3.165670309917317
"quinoline, decahydro-",C1CC[C@@H]2NCCC[C@H]2C1,-1.0831,G1,1.9286,42.98270000000001,1.0,1.0,1.0,0.0,0.0,2.0,2.0,2.0,12.03,63.19698781955201,1.9253677344386608
"9,10-dihydrophenanthrene",C1Cc2ccccc2c3ccccc13,-4.6347,G1,3.452200000000002,59.28600000000003,0.0,0.0,0.0,0.0,2.0,0.0,1.0,3.0,0.0,84.21255040082498,2.287583078364964
"benzoic acid, 2-benzoylhydrazide",O=C(NNC(=O)c1ccccc1)c2ccccc2,-1.5883,G1,1.7614,67.81640000000003,2.0,2.0,4.0,2.0,2.0,0.0,0.0,2.0,58.2,104.61128614189282,1.929663043511077
"phosphoric acid, diethyl propyl ester",CCCO[P](=O)(OCC)OCC,0.4063,G1,2.594100000000001,47.10150000000003,4.0,0.0,5.0,7.0,0.0,0.0,0.0,0.0,44.760000000000005,73.81915007720491,3.8988495245519545
tributylphosphine oxide,CCCC[P](=O)(CCCC)CCCC,-0.5932,G1,4.749800000000005,66.93150000000006,1.0,0.0,2.0,9.0,0.0,0.0,0.0,0.0,17.07,90.04321418628562,3.965945885084293
diethyl glutarate,CCOC(=O)CCCC(=O)OCC,-1.3297,G1,1.2829000000000002,47.117000000000026,4.0,0.0,4.0,6.0,0.0,0.0,0.0,0.0,52.60000000000001,78.2089226021037,3.334857361032243
calcium methionate,[Ca++].[O-][S](=O)(=O)C[S]([O-])(=O)=O,0.1255,G1,-2.3465,30.0154,6.0,0.0,9.0,2.0,0.0,0.0,0.0,0.0,114.39999999999998,88.11229104313496,0.0
4-penten-1-ol,OCCCC=C,-0.1793,G3,0.9449,26.51679999999999,1.0,1.0,1.0,3.0,0.0,0.0,0.0,0.0,20.23,38.303650205427736,2.4884037718761123
"4,4'-oxydi-2-butanol",CC(O)CCOCCC(C)O,0.7899,G1,0.5448,43.414600000000014,3.0,2.0,3.0,6.0,0.0,0.0,0.0,0.0,49.69,67.9958585625047,2.909205095488745
"1,12-dodecanedicarboxylic acid",OC(=O)CCCCCCCCCCCCC(O)=O,-3.1112,G1,3.836800000000003,70.67560000000005,2.0,2.0,4.0,13.0,0.0,0.0,0.0,0.0,74.6,109.39501021946504,2.985815595945486
"1,3-dioxolane, 2-(1-methylethyl)-",CC(C)C1OCCO1,-0.0651,G1,1.0153,30.529999999999983,2.0,0.0,2.0,1.0,0.0,1.0,1.0,1.0,18.46,49.78522090529712,2.242040082092553
"pyrimidine, 2-(methylthio)-",CSc1ncccn1,-0.402,G1,1.1985,33.813,3.0,0.0,3.0,1.0,1.0,0.0,0.0,1.0,25.78,52.35875122115184,2.8320858350070908
"2,6-dimethyl-1,3-dioxan-4-ol acetate",CC1CC(OC(C)O1)OC(C)=O,0.759,G1,1.047,41.26500000000001,4.0,0.0,4.0,1.0,0.0,1.0,1.0,1.0,44.760000000000005,71.79017246364099,2.384560851721994
"1h-purine-2,6-dione, 3,7-dihydro-1,3,8-trimethyl",CN1C(=O)N(C)c2nc(C)[nH]c2C1=O,-0.7276,G1,-0.7312800000000006,51.31270000000001,5.0,1.0,6.0,0.0,2.0,0.0,0.0,2.0,72.68,78.81898553155402,3.1743854173727075
"1h-purine-2,6-dione, 3,7-dihydro-1,3,7,8-tetrame",CN1C(=O)N(C)c2nc(C)n(C)c2C1=O,-1.4493,G1,-0.7208800000000009,55.93300000000002,6.0,0.0,6.0,0.0,2.0,0.0,0.0,2.0,61.82,85.39389913254594,3.225307810144424
"l-tyrosine, n-acetyl-, ethyl ester",CCOC(=O)[C@H](Cc1ccc(O)cc1)NC(C)=O,-1.8586,G1,1.0025,66.04850000000003,4.0,2.0,5.0,5.0,1.0,0.0,0.0,1.0,75.63,105.7666832856717,2.736963200997206
methoproptryne,COCCCNc1nc(NC(C)C)nc(SC)n1,-2.9284,G1,1.8622,75.34940000000005,7.0,2.0,7.0,8.0,1.0,0.0,0.0,1.0,71.96000000000001,112.34626359959756,2.6443398442437664
"2,4-bis((3-methoxypropyl)amino)-6-(methylthio)-s",COCCCNc1nc(NCCCOC)nc(SC)n1,-3.4792,G1,1.4903000000000002,81.57340000000003,8.0,2.0,8.0,11.0,1.0,0.0,0.0,1.0,81.19,123.82475094350104,2.5085339422222166
lorazepam,OC1N=C(c2ccccc2Cl)c3cc(Cl)ccc3NC1=O,-3.6036,G1,3.101300000000001,83.17950000000002,3.0,2.0,6.0,1.0,2.0,0.0,1.0,3.0,61.690000000000005,130.58496549069287,2.26892535252096
"androst-5-en-17-one,3-(acetyloxy),3-beta-",CC(=O)O[C@H]1CC[C@]2(C)[C@H]3CC[C@@]4(C)[C@@H](CCC4=O)[C@@H]3CC=C2C1,-4.4584,G1,4.450000000000004,92.26400000000004,3.0,0.0,3.0,1.0,0.0,3.0,4.0,4.0,43.370000000000005,144.76175509905497,1.5973719061421665
kebuzone,CC(=O)CCC1C(=O)N(N(C1=O)c2ccccc2)c3ccccc3,-3.2676,G1,2.966800000000001,91.26100000000004,3.0,0.0,5.0,5.0,2.0,1.0,1.0,3.0,57.690000000000005,140.01163063358106,2.00786058016812
"phosphonic acid, (trichloromethyl)-, diethyl est",CCO[P](=O)(OCC)C(Cl)(Cl)Cl,-1.7541,G1,3.5802000000000023,51.14850000000003,3.0,0.0,7.0,4.0,0.0,0.0,0.0,0.0,35.53,86.79884904142261,4.508862526355485
allylidenediacetate,CC(=O)OC(OC(C)=O)C=C,-1.2449,G1,0.6247,37.517,4.0,0.0,4.0,3.0,0.0,0.0,0.0,0.0,52.6,64.78943534112624,3.853125001001168
"acetamide, n,n'-1,2-ethanediylbis-",CC(=O)NCCNC(C)=O,0.6755,G1,-0.7414000000000003,37.3674,2.0,2.0,4.0,3.0,0.0,0.0,0.0,0.0,58.2,59.9867301671162,3.0550899395377584
"benzenemethanol, 4-bromo-",OCc1ccc(Br)cc1,-1.9295,G1,1.9414,40.06480000000002,1.0,1.0,2.0,1.0,1.0,0.0,0.0,1.0,20.23,62.45812659173094,2.881555877646136
p-chlorobenzyl alcohol,OCc1ccc(Cl)cc1,-1.7561,G1,1.8323,37.374800000000015,1.0,1.0,2.0,1.0,1.0,0.0,0.0,1.0,20.23,58.89384521297126,2.881555877646136
"2,4,6-triethoxy-s-triazine",CCOc1nc(OCC)nc(OCC)n1,-1.4838,G1,1.0677,53.33400000000003,6.0,0.0,6.0,6.0,1.0,0.0,0.0,1.0,66.36,88.62063543723677,2.8597435823891235
3-nitrofluoranthene,[O-][N+](=O)c1ccc2c3ccccc3c4cccc1c24,-7.1031,G1,4.395400000000002,75.03240000000002,2.0,0.0,3.0,1.0,3.0,0.0,1.0,4.0,43.14,108.81730642626675,2.229657655500842
methacycline,CN(C)[C@H]1[C@@H]2[C@@H](O)[C@@H]3C(=C)c4cccc(O)c4C(=C3C(=O)[C@]2(O)C(=O)\C(=C(N)/O)C1=O)O,-1.768,G1,-0.5944999999999991,110.96440000000008,10.0,6.0,10.0,1.0,1.0,2.0,3.0,4.0,181.62,181.73963382102968,2.0557239202181146
amidothion,COCCNC(=O)CS[P](=S)(OC)OC,-1.1356,G1,0.9995,65.64670000000004,6.0,1.0,8.0,8.0,0.0,0.0,0.0,0.0,56.790000000000006,99.14587617995114,3.7430855075536567
demeton-s-methyl,CCSCCS[P](=O)(OC)OC,-1.8438,G1,2.873600000000001,57.08150000000004,5.0,0.0,6.0,7.0,0.0,0.0,0.0,0.0,35.53,82.2487971490232,3.5223947479401634
"hexanedioic acid, 2,3,3-trimethyl-",CC(C(O)=O)C(C)(C)CCC(O)=O,-1.5265,G1,1.5981,47.45060000000002,2.0,2.0,4.0,5.0,0.0,0.0,0.0,0.0,74.6,77.57029964748199,4.212011338632231