Name,SMILES,Solubility,Group,MolLogP,MolMR,NumHAcceptors,NumHDonors,NumHeteroatoms,NumRotatableBonds,NumAromaticRings,NumSaturatedRings,NumAliphaticRings,RingCount,TPSA,LabuteASA,BalabanJ
"benzoic acid, 4-hydroxy-3-iodo-, ethyl ester",CCOC(=O)c1ccc(O)c(I)c1,-3.4924,G1,2.1735,56.780300000000025,3.0,1.0,4.0,2.0,1.0,0.0,0.0,1.0,46.53,89.85736866547707,2.9029492111309567
"benzoic acid, 4-hydroxy-3-iodo-, propyl ester",CCCOC(=O)c1ccc(O)c(I)c1,-3.6865,G1,2.563600000000001,61.39730000000003,3.0,1.0,4.0,3.0,1.0,0.0,0.0,1.0,46.53,96.22231077987368,2.755619609872736
"benzoic acid, 4-hydroxy-3-iodo-, butyl ester",CCCCOC(=O)c1ccc(O)c(I)c1,-3.9033,G1,2.9537000000000013,66.01430000000003,3.0,1.0,4.0,4.0,1.0,0.0,0.0,1.0,46.53,102.58725289427028,2.6180849583030543
"propanoic acid, 2-(2,4-dichlorophenoxy)-, (r)-",C[C@@H](Oc1ccc(Cl)cc1Cl)C(O)=O,-2.6003,G1,2.845300000000001,54.18780000000002,2.0,1.0,5.0,3.0,1.0,0.0,0.0,1.0,46.53,91.2020629981968,2.817664884623791
tranid,CNC(=O)O\N=C1/[C@@H](Cl)C2C[C@H](C#N)C1C2,-2.0822,G1,1.48538,57.93370000000002,4.0,1.0,6.0,1.0,0.0,2.0,2.0,2.0,74.47999999999999,98.38220415718772,2.1003699858939844
"n,n-diethyl-2-(1-naphthalenyloxy)propanamide",CCN(CC)C(=O)C(C)Oc1cccc2ccccc12,-3.5702,G3,3.475500000000002,81.96600000000005,2.0,0.0,3.0,5.0,2.0,0.0,0.0,2.0,29.540000000000003,119.70256345176249,2.2158696374530527
"benzamide, 2-iodo-n-phenyl",Ic1ccccc1C(=O)Nc2ccccc2,-4.2084,G1,3.5435000000000008,73.55420000000002,1.0,1.0,3.0,2.0,2.0,0.0,0.0,2.0,29.1,107.82666184465307,2.186811345762867
"1,3-benzodioxole-5-methanol, 6-nitro-",OCc1c2OCOc2ccc1[N+]([O-])=O,-3.0643,G1,0.8157999999999999,45.14220000000002,5.0,1.0,6.0,2.0,1.0,0.0,1.0,2.0,81.82999999999998,78.8297561284705,2.5915050769910337
fluorodifen,[O-][N+](=O)c1ccc(Oc2ccc(cc2[N+]([O-])=O)C(F)(F)F)cc1,-5.2151,G1,4.314100000000002,71.2688,5.0,0.0,10.0,4.0,2.0,0.0,0.0,2.0,95.51,125.76954232324276,2.3529844349638056
noxythiolin,CN[S]#CNCO,-0.0798,G1,-0.6899000000000004,30.7602,3.0,3.0,4.0,1.0,0.0,0.0,0.0,0.0,44.29,46.46102249214419,2.908625128121578
"propanenitrile, 2-(acetyloxy)-",CC(OC(C)=O)C#N,0.2475,G1,0.4615799999999999,26.84099999999999,3.0,0.0,3.0,1.0,0.0,0.0,0.0,0.0,50.09,47.866666496435336,3.4298390584447223
cis-platin,N.N.[Cl-].[Cl-].[Pt++],-2.0741,G1,-5.670500000000001,10.0442,2.0,2.0,5.0,0.0,0.0,0.0,0.0,0.0,70.0,58.334253084677066,-0.0
"quinoxaline-1,4-dihydro-2,3-dione",O=C1Nc2ccccc2NC1=O,-2.812,G1,0.2163999999999999,45.189400000000006,2.0,2.0,4.0,0.0,2.0,0.0,0.0,2.0,65.72,66.87540781321272,3.03251162187545
"4,4-dimethyloctane",CCCCC(C)(C)CCC,-4.8108,G1,4.002900000000003,48.21400000000003,0.0,0.0,0.0,5.0,0.0,0.0,0.0,0.0,0.0,66.02373005739904,3.417511758543521
"acetic acid, 2,2'-tetrathiobis-",OC(=O)CSSSSCC(O)=O,-1.452,G1,1.8334000000000004,55.369600000000005,6.0,2.0,8.0,7.0,0.0,0.0,0.0,0.0,74.6,84.43791543600888,3.0073056362946597
"ethanol, 2-butoxy-, carbamate",CCCCOCCOC(N)=O,-0.5084,G1,0.8984000000000001,41.2624,3.0,1.0,4.0,6.0,0.0,0.0,0.0,0.0,61.55,66.65740697027944,2.8497612822334424
pentachlorobenzyl alcohol,OCc1c(Cl)c(Cl)c(Cl)c(Cl)c1Cl,-5.1467,G1,4.445900000000001,57.414800000000014,1.0,1.0,6.0,1.0,1.0,0.0,0.0,1.0,20.23,100.10691012049791,3.563757676047911
chlorosuccinic acid,OC(=O)CC(Cl)C(O)=O,0.0767,G1,0.1531000000000001,29.52959999999999,2.0,2.0,5.0,3.0,0.0,0.0,0.0,0.0,74.6,56.0488553023806,3.632432151939845
carbetamide,CCNC(=O)[C@H](C)OC(=O)Nc1ccccc1,-1.8293,G1,1.7596999999999998,64.69140000000003,3.0,2.0,5.0,4.0,1.0,0.0,0.0,1.0,67.42999999999999,100.15736960268714,2.419926733388694
"phosphonic acid, hexyl-, diethyl ester",CCCCCC[P](=O)(OCC)OCC,-2.5687,G1,3.8328000000000033,59.86750000000005,3.0,0.0,4.0,9.0,0.0,0.0,0.0,0.0,35.53,87.71376093276064,3.776797252983613
"2-naphthol, 3-(2-imidazolin-2-yl)-",Oc1cc2ccccc2cc1C3=NCCN3,-3.3015,G1,1.8952,65.01950000000002,3.0,2.0,3.0,1.0,2.0,0.0,1.0,3.0,44.620000000000005,93.44148126255696,2.209261722306593
"phenol, 2-iodo-4-methyl-",Cc1ccc(O)c(I)c1,-2.4662,G1,2.3052200000000003,45.560800000000015,1.0,1.0,2.0,0.0,1.0,0.0,0.0,1.0,20.23,67.85241710713322,3.171678030440916
"2-propenoic acid, 3-[2-(acetyloxy)phenyl]-, (e)-",CC(=O)Oc1ccccc1\C=C\C(O)=O,-3.1559,G1,1.7097,54.420800000000014,3.0,1.0,4.0,3.0,1.0,0.0,0.0,1.0,63.6,86.79733384108619,2.9536555307466617
"benzoic acid, 3-chloro-4-hydroxy-, ethyl ester",CCOC(=O)c1ccc(O)c(Cl)c1,-3.2232,G1,2.2223,49.073300000000025,3.0,1.0,4.0,2.0,1.0,0.0,0.0,1.0,46.53,80.8987967713151,2.9029492111309567
"l-glutamic acid, n-l-leucyl-",CC(C)C[C@H](N)C(=O)N[C@@H](CCC(O)=O)C(O)=O,-0.8969,G1,-0.2059999999999989,63.86670000000002,4.0,4.0,7.0,8.0,0.0,0.0,0.0,0.0,129.72000000000003,105.35145885693971,4.3528785501659
"butanamide, n-methyl-n-nitroso-",CCCC(=O)N(C)N=O,-1.5347,G1,0.9263,33.47299999999999,3.0,0.0,4.0,3.0,0.0,0.0,0.0,0.0,49.74,53.78524326012857,3.583388067911339
mecoprop-p,C[C@@H](Oc1ccc(Cl)cc1C)C(O)=O,-2.3972,G1,2.5003199999999994,53.91480000000002,2.0,1.0,4.0,3.0,1.0,0.0,0.0,1.0,46.53,87.26373888571173,2.817664884623791
"2-propenamide, 2-chloro-",NC(=O)C(Cl)=C,-0.2104,G1,0.2242,24.1874,1.0,1.0,3.0,1.0,0.0,0.0,0.0,0.0,43.09,40.58421124837666,3.5677034550432034
cyclopropyl vinyl ether,C=COC1CC1,-1.1001,G1,1.3089,24.30399999999999,1.0,0.0,1.0,2.0,0.0,1.0,1.0,1.0,9.23,37.617130529209376,2.0042659400935183
"hydantoin, 5-methyl-5-(2-piperidinoethyl)-",CC1(CCN2CCCCC2)NC(=O)NC1=O,-0.8213,G1,0.4605,59.98740000000004,3.0,2.0,5.0,3.0,0.0,2.0,2.0,2.0,61.440000000000005,95.55961210224416,1.839970688951592
"à-d-glucofuranose, 1,2:5,6-bis-o-(1-methylethyli",CC(=O)O[C@H]1[C@H](O[C@@H]2OC(C)(C)O[C@H]12)[C@H]3COC(C)(C)O3,-1.5229,G1,0.9459999999999992,69.15600000000005,7.0,0.0,7.0,2.0,0.0,3.0,3.0,3.0,72.45000000000002,123.30879853148278,1.7669203352360854
"2-thiazolecarboxylic acid, hydrazide",NNC(=O)c1sccn1,-0.6787,G1,-0.2534000000000002,33.76760000000001,4.0,2.0,5.0,1.0,1.0,0.0,0.0,1.0,68.00999999999999,55.67776748615108,2.770351770759627
methomyl,CNC(=O)O\N=C(/C)SC,-0.4466,G1,1.0388,42.16470000000002,4.0,1.0,5.0,1.0,0.0,0.0,0.0,0.0,50.69,63.99642000927801,3.608044380766722
"3,4,5-trichloroveratrole",COc1cc(Cl)c(Cl)c(Cl)c1OC,-4.3701,G1,3.6640000000000015,54.57600000000002,2.0,0.0,5.0,2.0,1.0,0.0,0.0,1.0,18.46,91.29817648794896,3.387372269116415
4-chloroguaiacol,COc1cc(Cl)ccc1O,-1.5013,G1,2.0542,39.66880000000002,2.0,1.0,3.0,1.0,1.0,0.0,0.0,1.0,29.46,64.00739044247814,3.090683646458197
"benzenesulfonamide, 4-amino-n-1,3,4-thiadiazol-2",Nc1ccc(cc1)[S](=O)(=O)Nc2scnn2,-2.8684,G1,0.9211,61.57190000000001,6.0,2.0,8.0,3.0,2.0,0.0,0.0,2.0,97.97,96.18713889930606,2.2889130817194454
"2-furanacetic acid, tetrahydro-2-methyl-5-oxo-,",CCOC(=O)CC1(C)CCC(=O)O1,-0.7472,G1,1.0353,44.98100000000002,4.0,0.0,4.0,3.0,0.0,1.0,1.0,1.0,52.60000000000001,77.20309144857448,2.4312019047262803
"succinic acid, 2-ethyl-3-phenyl-",CCC(C(C(O)=O)c1ccccc1)C(O)=O,-2.3256,G1,1.9656,58.23560000000003,2.0,2.0,4.0,5.0,1.0,0.0,0.0,1.0,74.6,93.5325675103562,3.0886506543233865
"benzamide, 2,4-dichloro-n-hydroxy-n-phenyl-",ON(c1ccccc1)C(=O)c2ccc(Cl)cc2Cl,-3.6723,G1,4.029400000000002,71.50000000000001,2.0,1.0,5.0,2.0,2.0,0.0,0.0,2.0,40.54,114.12959991564206,2.315726971090545
"pteridine, 2-(methylthio)-",CSc1ncc2nccnc2n1,-1.7561,G3,1.1416999999999995,46.90900000000002,5.0,0.0,5.0,1.0,2.0,0.0,0.0,2.0,51.56,73.47971171478005,2.673996462761564
"barbituric acid, 5-bromo-5-isopropyl-",CC(C)C1(Br)C(=O)NC(=O)NC1=O,-2.2088,G1,0.1421,48.177400000000006,3.0,2.0,6.0,1.0,0.0,1.0,1.0,1.0,75.27000000000001,83.37491083366872,3.030240417314884
"1,4-benzenedisulfonamide",N[S](=O)(=O)c1ccc(cc1)[S](N)(=O)=O,-2.5283,G1,-1.0185999999999995,49.18840000000001,4.0,2.0,8.0,2.0,1.0,0.0,0.0,1.0,120.32,81.63273629835254,3.2768036092509747
"barbituric acid,5,5-dibutyl-",CCCCC1(CCCC)C(=O)NC(=O)NC1=O,-2.8756,G1,1.7191999999999998,63.16440000000004,3.0,2.0,5.0,6.0,0.0,1.0,1.0,1.0,75.27000000000001,101.33207380001042,2.88661545790744
8-cinnolinol,Oc1cccc2ccnnc12,-2.4089,G1,1.3353999999999997,41.20280000000002,3.0,1.0,3.0,0.0,2.0,0.0,0.0,2.0,46.010000000000005,63.31505093372592,2.9131611636048604
"8-cinnolinol, 4-methyl-",Cc1cnnc2c(O)cccc12,-2.6783,G1,1.6438199999999998,45.93980000000003,3.0,1.0,3.0,0.0,2.0,0.0,0.0,2.0,46.010000000000005,69.67999304812253,2.943372852061392
5-quinoxalinol,Oc1cccc2nccnc12,-1.3468,G1,1.3354,41.20280000000002,3.0,1.0,3.0,0.0,2.0,0.0,0.0,2.0,46.010000000000005,63.3465973653212,2.9131611636048604
"1,6-naphthyridin-8-ol",Oc1cncc2cccnc12,-1.6576,G1,1.3354,41.20280000000002,3.0,1.0,3.0,0.0,2.0,0.0,0.0,2.0,46.010000000000005,63.3465973653212,2.9131611636048604
"glycine, n-[n-(n-carbamoylglycyl)glycyl]-",NC(=O)NCC(=O)NCC(=O)NCC(O)=O,-1.3505,G1,-3.028299999999999,51.2413,4.0,5.0,9.0,6.0,0.0,0.0,0.0,0.0,150.61999999999998,90.35870311441712,3.625165652316584
"butanoic acid, 2-(ethylamino)-",CCNC(CC)C(O)=O,-0.4189,G1,0.4591,35.39149999999999,2.0,2.0,3.0,4.0,0.0,0.0,0.0,0.0,49.33,55.0695796356604,3.541168581230058
"benzeneacetic acid, .alpha.-hydroxy-, (s)-",O[C@H](C(O)=O)c1ccccc1,0.1592,G1,0.8046,39.03760000000002,2.0,2.0,3.0,2.0,1.0,0.0,0.0,1.0,57.53,63.91127695272596,2.851177890164404
"glycine, n-[n-(aminocarbonyl)glycyl]-",NC(=O)NCC(=O)NCC(O)=O,-0.8996,G1,-2.1445,38.23160000000001,3.0,4.0,7.0,4.0,0.0,0.0,0.0,0.0,121.52,67.91743460197209,3.467235170058121
isopropyl t-butyl ether,CC(C)OC(C)(C)C,-2.3662,G1,2.2099,35.97399999999999,1.0,0.0,1.0,1.0,0.0,0.0,0.0,0.0,9.23,52.04244894371607,3.388924101358251
"3,5-dinitro-l-tyrosine",N[C@@H](Cc1cc(c(O)c(c1)[N+]([O-])=O)[N+]([O-])=O)C(O)=O,-1.5125,G1,0.1629999999999998,60.7308,7.0,3.0,10.0,5.0,1.0,0.0,0.0,1.0,169.82999999999998,104.9220612091349,3.3042723212074687
"acetone, 4-(p-nitrophenyl)semicarbazone",CC(C)=NNC(=O)Nc1ccc(cc1)[N+]([O-])=O,-3.5952,G1,2.1121,64.03380000000001,4.0,2.0,7.0,3.0,1.0,0.0,0.0,1.0,96.63,97.67085227293816,2.602007486360429
"1,3,5-benzenetricarboxylic acid, 2-methoxy-",COc1c(cc(cc1C(O)=O)C(O)=O)C(O)=O,-1.5354,G1,0.7898000000000001,53.8719,4.0,3.0,7.0,4.0,1.0,0.0,0.0,1.0,121.13000000000002,94.87198436330962,3.625430618211917
"1(3h)-isobenzofuranone, 3-ethyl-",CCC1OC(=O)c2ccccc12,-1.747,G1,2.3081000000000005,44.88950000000003,2.0,0.0,2.0,1.0,1.0,0.0,1.0,2.0,26.3,71.1604077531048,2.497372755114556
metolazone,CC1Nc2cc(Cl)c(cc2C(=O)N1c3ccccc3C)[S](N)(=O)=O,-3.783,G3,2.7141199999999994,93.89840000000002,4.0,2.0,8.0,2.0,2.0,0.0,1.0,3.0,92.5,144.8175853997829,2.167413797290446
"1,2,4-triazin-3-amine, 5,6-dimethyl-",Cc1nnc(N)nc1C,-1.0939,G1,0.0706399999999996,33.7134,4.0,1.0,4.0,0.0,1.0,0.0,0.0,1.0,64.69,53.12857555654716,3.171678030440915
bensultap,CN(C)C(CS[S](=O)(=O)c1ccccc1)CS[S](=O)(=O)c2ccccc2,-5.76,G1,3.160800000000002,109.64660000000003,7.0,0.0,9.0,9.0,2.0,0.0,0.0,2.0,71.52000000000001,162.36998255475035,2.014935593788809
"butanedinitrile, ethyl-",CCC(CC#N)C#N,-0.6916,G1,1.44986,29.623999999999988,2.0,0.0,2.0,2.0,0.0,0.0,0.0,0.0,47.58,49.34912096275001,3.4499430844722583
"1,2-benzenedicarboxylic acid, mono(2-hydroxyethy",OCCOC(=O)c1ccccc1C(O)=O,-1.4825,G1,0.5339,50.76960000000002,4.0,2.0,5.0,4.0,1.0,0.0,0.0,1.0,83.83000000000001,85.91622851106985,2.9229450292375327
"phenol, 4-amino-2,6-dinitro-",Nc1cc(c(O)c(c1)[N+]([O-])=O)[N+]([O-])=O,-2.3853,G1,0.7907999999999997,45.828,6.0,2.0,8.0,2.0,1.0,0.0,0.0,1.0,132.53,76.87147901370528,3.472584005406869
fentiazac,OC(=O)Cc1sc(nc1c2ccc(Cl)cc2)c3ccccc3,-4.9644,G1,4.757600000000003,89.33580000000002,3.0,1.0,5.0,4.0,3.0,0.0,0.0,3.0,50.19,136.39450909089769,2.0881279260188315
"1-pentene, 5-isothiocyanato-",C=CCCCN=C=S,-2.9004,G1,2.0554,39.32400000000001,2.0,0.0,2.0,4.0,0.0,0.0,0.0,0.0,12.36,55.12846130069333,2.925623031243759
"[1,1'-biphenyl]-3-ol, 4-nitro-",Oc1cc(ccc1[N+]([O-])=O)c2ccccc2,-3.8557,G1,2.9674000000000014,60.19720000000003,3.0,1.0,4.0,2.0,2.0,0.0,0.0,2.0,63.37,91.93570680025682,2.464853287754259
"benzaldehyde, 4-hydroxy-3-methoxy-2-methyl-",COc1c(C)c(C=O)ccc1O,-1.3755,G1,1.5217199999999995,44.783300000000025,3.0,1.0,3.0,2.0,1.0,0.0,0.0,1.0,46.53,70.59553054443344,3.330537498737434
"benzoic acid, 4-amino-, 1-methylethyl ester",CC(C)OC(=O)c1ccc(N)cc1,-2.6099,G1,1.834,51.40590000000002,3.0,1.0,3.0,2.0,1.0,0.0,0.0,1.0,52.32,77.50612960364676,2.7210567131320755
"1-propanamine, 3-(trimethylsilyl)-",C[Si](C)(C)CCCN,-1.9509,G1,1.6733999999999998,41.8244,1.0,1.0,2.0,3.0,0.0,0.0,0.0,0.0,26.02,53.28483954220241,3.111766194388426
"hydrazinecarboximidamide, n-nitro-",NNC(=N)N[N+]([O-])=O,-1.6458,G1,-1.83423,25.17990000000001,4.0,4.0,7.0,1.0,0.0,0.0,0.0,0.0,117.07,44.457464854292894,3.3954996118673995
"benzenemethanol, 4-iodo-",OCc1ccc(I)cc1,-2.7460000000000004,G1,1.7835,45.081800000000015,1.0,1.0,2.0,1.0,1.0,0.0,0.0,1.0,20.23,67.85241710713322,2.881555877646136
"1,2-cyclohexanedione, 3-methyl-, dioxime",CC1CCCC(=NO)C1=NO,-1.5916,G1,1.4668,41.458000000000006,4.0,2.0,4.0,0.0,0.0,1.0,1.0,1.0,65.18,65.21026203574819,2.810618674357331
"1,2-cyclohexanedione, 4-methyl-, dioxime",CC1CCC(=C(C1)NO)N=O,-1.6622,G1,1.7632,40.7582,4.0,2.0,4.0,2.0,0.0,0.0,1.0,1.0,61.69,65.22633594800823,2.741884988513675
"1,2-cyclohexanedione, 4-isopropyl-, dioxime",CC(C)C1CCC(=NO)C(C1)=NO,-2.3903,G1,2.1029,50.62200000000002,4.0,2.0,4.0,1.0,0.0,1.0,1.0,1.0,65.18,77.9401462645414,2.6946203698874758
"l-alanine, n-(aminocarbonyl)-",C[C@H](NC(N)=O)C([O-])=O,-0.9656,G1,-2.206899999999999,27.1881,3.0,2.0,5.0,2.0,0.0,0.0,0.0,0.0,95.25,51.84110820392367,3.632432151939845
"benz(a)anthracene-4,5-dimethylene",Cc1cccc2c3cc4ccccc4cc3cc(C)c12,-7.9743,G1,5.763040000000004,88.43400000000004,0.0,0.0,0.0,0.0,4.0,0.0,0.0,4.0,0.0,118.2062809434958,2.2920897601012777
"1,2-cyclodecanedione, dioxime",ON=C1CCCCCCCCC1=NO,-2.5813,G1,2.781200000000001,55.379000000000026,4.0,2.0,4.0,0.0,0.0,1.0,1.0,1.0,65.18,84.30508837893804,2.587854649455147
"2-cyclopenta[c]pyran-4-carboxylic acid, 1-(á-d-g",COC(=O)C1=CO[C@@H](O[C@@H]2O[C@H](CO)[C@@H](O)[C@H](O)[C@H]2O)[C@@H]3[C@@H](C)[C@@H](O)C[C@H]13,-0.5911,G1,-2.1507999999999976,86.59200000000003,10.0,5.0,10.0,4.0,0.0,2.0,3.0,3.0,155.14,155.45810014445468,1.7990697171216272
"ethanesulfinothioic acid, s-ethyl ester",CCS[S](=O)CC,-0.0993,G1,1.4231,36.8154,2.0,0.0,3.0,3.0,0.0,0.0,0.0,0.0,17.07,50.7314036863102,3.002590528674132
albuterol,CC(C)(C)NCC(O)c1ccc(O)c(CO)c1,-1.2298,G3,1.3059999999999998,66.74510000000004,4.0,4.0,4.0,4.0,1.0,0.0,0.0,1.0,72.72,101.9185613604693,2.7202058661391737
"2h-pyran, tetrahydro-2-methoxy-6-methyl-",COC1CCCC(C)O1,-0.5921,G1,1.5479,35.19499999999999,2.0,0.0,2.0,1.0,0.0,1.0,1.0,1.0,18.46,56.15016301969372,2.23165161946076
"2-oxabicyclo[2.2.2]octan-6-one, 1,3,3-trimethyl-",CC1(C)OC2(C)CCC1CC2=O,-0.9249,G1,1.9231,45.91700000000002,2.0,0.0,2.0,0.0,0.0,3.0,3.0,3.0,26.3,73.28713507989121,2.3236287970727183
methabenzthiazuron,CNC(=O)N(C)c1sc2ccccc2n1,-3.5741,G1,2.0719,62.47870000000002,3.0,1.0,5.0,1.0,2.0,0.0,0.0,2.0,45.23,91.53912319963518,2.4015741652911338
"3-heptanol, 2-methyl-",CCCCC(O)C(C)C,-1.8122,G1,2.1935,40.369800000000005,1.0,1.0,1.0,4.0,0.0,0.0,0.0,0.0,20.23,58.08807958080181,3.1552800835051924
"3-heptanol, 5-methyl-",CCC(C)CC(O)CC,-1.8602,G1,2.1935,40.369800000000005,1.0,1.0,1.0,4.0,0.0,0.0,0.0,0.0,20.23,58.08807958080181,3.2230469044906185
ethylisopentylcarbinol,CCC(O)CCC(C)C,-1.9272,G1,2.1935,40.369800000000005,1.0,1.0,1.0,4.0,0.0,0.0,0.0,0.0,20.23,58.08807958080181,3.0608205611627874
"2,5-selenophenedicarboxylic acid, tetrahydro-",OC(=O)C1CCC([Se]1)C(O)=O,-0.545,G1,0.2306,37.7596,2.0,2.0,5.0,2.0,0.0,1.0,1.0,1.0,74.6,69.75020323186911,2.4689795783424326
isoxathion,CCO[P](=S)(OCC)Oc1cc(on1)c2ccccc2,-5.2172,G1,4.017900000000003,80.10400000000003,6.0,0.0,7.0,7.0,2.0,0.0,0.0,2.0,53.72,122.63416312567372,2.145092887186004
"butanoic acid, 3-methyl-, 4-nitrophenyl ester",CC(C)CC(=O)Oc1ccc(cc1)[N+]([O-])=O,-4.3945,G1,2.5463000000000005,58.18640000000003,4.0,0.0,5.0,4.0,1.0,0.0,0.0,1.0,69.44,93.18415674353044,2.616139242776529
"benzenemethanol, 2-bromo-",OCc1ccccc1Br,-2.158,G1,1.9414,40.06480000000001,1.0,1.0,2.0,1.0,1.0,0.0,0.0,1.0,20.23,62.45812659173095,3.0065240073265844
"acetamide, n- 4- (2-pyridinylamino)sulfonyl phen",CC(=O)Nc1ccc(cc1)[S](=O)(=O)Nc2ccccn2,-3.7162,G1,1.8408,75.79120000000003,4.0,2.0,7.0,4.0,2.0,0.0,0.0,2.0,88.16,116.46005189497563,2.194477786981241
"2,4-pteridinediamine, 6,7-diethyl-",CCc1nc2nc(N)nc(N)c2nc1CC,-3.2671,G1,0.7089999999999999,62.70880000000001,6.0,2.0,6.0,2.0,2.0,0.0,0.0,2.0,103.6,93.13120942663008,2.7764950080151056
"pteridine, 2-(methylamino)-",CNc1ncc2nccnc2n1,-1.7124,G1,0.4614999999999998,44.674700000000016,5.0,1.0,5.0,1.0,2.0,0.0,0.0,2.0,63.59,68.90646387302287,2.673996462761564
"nicotinamide, n-(6-methoxy-8-quinolyl)-",COc1cc(NC(=O)c2cccnc2)c3ncccc3c1,-4.4461,G1,2.8907000000000007,80.48520000000002,4.0,1.0,5.0,3.0,3.0,0.0,0.0,3.0,64.11,121.16427156114108,2.015897385759144
polyoxin b,N[C@@H]([C@H](O)[C@@H](O)COC(N)=O)C(=O)N[C@@H]([C@H]1O[C@H](C(O)C1O)N2C=C(CO)C(=O)NC2=O)C(O)=O,0.2946,G1,-6.638099999999997,108.26000000000003,14.0,10.0,18.0,10.0,1.0,1.0,1.0,2.0,309.98,193.8488339516541,2.21782789978754
5-chlorovanillin,COc1cc(C=O)cc(Cl)c1O,-2.8747,G1,1.8667,45.056300000000014,3.0,1.0,4.0,2.0,1.0,0.0,0.0,1.0,46.53,74.5338546569185,3.278676986181533
"1(3h)-isobenzofuranone, 6-bromo-",Brc1ccc2COC(=O)c2c1,-2.6472,G1,2.1195,43.26150000000001,2.0,0.0,3.0,0.0,1.0,0.0,1.0,2.0,26.3,72.29807112995296,2.60360667998887
"3,5-dimethyl-4-heptanol",CCC(C)C(O)C(C)CC,-2.5108,G1,2.4395000000000007,44.916800000000016,1.0,1.0,1.0,4.0,0.0,0.0,0.0,0.0,20.23,64.45302169519842,3.685406534013343
"phenol, 2,4-dichloro-6-(phenylmethyl)-",Oc1c(Cl)cc(Cl)cc1Cc2ccccc2,-4.6399,G1,4.289800000000002,67.37480000000002,1.0,1.0,3.0,2.0,2.0,0.0,0.0,2.0,20.23,104.25420564591698,2.349941847732457
"1(3h)-isobenzofuranone, 6-chloro-",Clc1ccc2COC(=O)c2c1,-2.4817,G1,2.0104,40.571500000000015,2.0,0.0,3.0,0.0,1.0,0.0,1.0,2.0,26.3,68.73378975119326,2.60360667998887
"1-naphthoic acid, 4-ethoxy-",CCOc1ccc(C(O)=O)c2ccccc12,-4.1122,G1,2.936700000000001,62.076300000000025,2.0,1.0,3.0,3.0,2.0,0.0,0.0,2.0,46.53,93.27719507616864,2.714944658375525
"1,2-butanediol, 2-methyl-1-phenyl-",CCC(C)(O)C(O)c1ccccc1,-1.7244,G1,1.881,52.31660000000005,2.0,2.0,2.0,3.0,1.0,0.0,0.0,1.0,40.46,78.84458119587204,2.852943579601413
"d-leucine, n-acetyl-",CC(C)C[C@@H](NC(C)=O)C(O)=O,-1.3301,G1,0.6218000000000001,44.69550000000001,2.0,2.0,4.0,4.0,0.0,0.0,0.0,0.0,66.4,71.9609859644974,4.044711483745026
"dl-serine, o-methyl-",COC[C@H](N)C(O)=O,0.6524,G1,-0.9552999999999991,27.487199999999994,3.0,2.0,4.0,3.0,0.0,0.0,0.0,0.0,72.55000000000001,47.24326914977875,3.318087197283996
"4(1h)-pyrimidinone, 5-bromo-",BrC1=CN=CNC1=O,-0.4471,G1,0.5323999999999998,32.55769999999999,2.0,1.0,4.0,0.0,1.0,0.0,0.0,1.0,45.75,53.89976878707511,3.3466073908691203
"3-pyridinecarbonitrile, 6-chloro-1,2-dihydro-4-h",OC1=C(C#N)C(=O)C=C(Cl)N1,-1.2319,G1,0.6055799999999999,38.4525,3.0,2.0,5.0,0.0,1.0,0.0,0.0,1.0,76.88,66.66759497543025,3.529338956166089
"propanoic acid, 3-hydroxy-2-methyl-, 2,3,3a,4,5,",CC(CO)C(=O)O[C@H]1CC(=C/CCC(=C/[C@H]2OC(=O)C(=C)[C@H]12)/CO)/C,-2.2436,G1,1.6732999999999998,91.41660000000005,6.0,2.0,6.0,4.0,0.0,1.0,2.0,2.0,93.06000000000002,147.3663398468506,2.367738364063153
ethyl isopropylamine,CCNC(C)C,1.0597,G1,1.0043,28.812699999999985,1.0,1.0,1.0,2.0,0.0,0.0,0.0,0.0,12.03,39.74888166902402,2.6272148478988635
"1,2,3,4-tetrachloronaphthalene",Clc1c(Cl)c(Cl)c2ccccc2c1Cl,-7.7954,G1,5.453400000000001,63.988000000000014,0.0,0.0,4.0,0.0,2.0,0.0,0.0,2.0,0.0,101.32613255875886,3.021805296135276
"benzoic acid, 4-amino-, dodecyl ester",CCCCCCCCCCCCOC(=O)c1ccc(N)cc1,-7.8,G1,5.346500000000004,92.98090000000006,3.0,1.0,3.0,12.0,1.0,0.0,0.0,1.0,52.32,134.79060863321627,1.9268319902698223
"2-furaldehyde, 5-nitro-, 2-pentylsemicarbazone",CCCCCN(N=Cc1oc(cc1)[N+]([O-])=O)C(N)=O,-2.8971,G1,2.0926,68.77080000000002,5.0,1.0,8.0,7.0,1.0,0.0,0.0,1.0,114.97,109.56000788020484,2.632822063301598
"a-(2,2,2-trichloroethyl)styrene",ClC(Cl)(Cl)CC(=C)c1ccccc1,-4.2822,G1,4.460100000000002,60.38300000000002,0.0,0.0,3.0,2.0,1.0,0.0,0.0,1.0,0.0,93.1113672255442,2.7064848330743776