Name,SMILES,Solubility,Group,MolLogP,MolMR,NumHAcceptors,NumHDonors,NumHeteroatoms,NumRotatableBonds,NumAromaticRings,NumSaturatedRings,NumAliphaticRings,RingCount,TPSA,LabuteASA,BalabanJ
lactitol,OCC(O)C(O)C(OC1OC(CO)C(O)C(O)C1O)C(O)CO,0.2872,G1,-5.761199999999992,70.83220000000004,11.0,9.0,11.0,8.0,0.0,1.0,1.0,1.0,200.53,131.1229773614409,2.885103446656517
melibiose,OCC1OC(OCC2OC(O)C(O)C(O)C2O)C(O)C(O)C1O,0.4656,G1,-5.397199999999993,68.61940000000004,11.0,8.0,11.0,4.0,0.0,2.0,2.0,2.0,189.53,130.43645768522254,1.9398102917255933
"3,5-dinitrophenol",Oc1cc(cc(c1)[N+]([O-])=O)[N+]([O-])=O,-1.663,G1,1.2086000000000003,41.41560000000001,5.0,1.0,7.0,2.0,1.0,0.0,0.0,1.0,106.51,71.53158831669259,3.263407613099897
"1,4-benzenedicarboxylic acid, 2-bromo-",OC(=O)c1ccc(C(O)=O)c(Br)c1,-2.1339,G1,1.8455,48.0606,2.0,2.0,5.0,2.0,1.0,0.0,0.0,1.0,74.6,81.94034665841109,3.2021054375890703
4-pyridinemethanol,OCc1ccncc1,0.9621,G1,0.5739,30.159799999999997,2.0,1.0,2.0,1.0,1.0,0.0,0.0,1.0,33.120000000000005,47.8102269670361,2.8320858350070908
"2-propanol, 1,3-dichloro-, carbamate",NC(=O)OC(CCl)CCl,-1.3605,G1,0.9279,35.89640000000001,2.0,1.0,5.0,3.0,0.0,0.0,0.0,0.0,52.32000000000001,63.05556785134608,3.4263044810116603
m-methylbenzyl alcohol,Cc1cccc(CO)c1,-0.3879999999999999,G1,1.48732,37.1018,1.0,1.0,1.0,1.0,1.0,0.0,0.0,1.0,20.23,54.95552110048619,2.9368661023365914
"3,5-dichlorophenoxyacetic acid",OC(=O)COc1cc(Cl)cc(Cl)c1,-2.3617,G1,2.4568000000000003,49.59280000000002,2.0,1.0,5.0,3.0,1.0,0.0,0.0,1.0,46.53,84.83712088380018,2.7132421927666166
m-chlorophenoxyacetic acid,OC(=O)COc1cccc(Cl)c1,-2.1954,G3,1.8034,44.58280000000002,2.0,1.0,4.0,3.0,1.0,0.0,0.0,1.0,46.53,74.5338546569185,2.5749361542074807
stilbene,c1ccc(cc1)\C=C\c2ccccc2,-5.7905,G3,3.857000000000003,61.81200000000003,0.0,0.0,0.0,2.0,2.0,0.0,0.0,2.0,0.0,84.52877852216996,2.159341417811232
"1,4-benzenedimethanol",OCc1ccc(CO)cc1,-0.3861,G1,0.6712,38.287600000000005,2.0,2.0,2.0,2.0,1.0,0.0,0.0,1.0,40.46,59.749754852682194,2.7972512629697874
3-methylhexane,CCCC(C)CC,-4.3063,G1,2.832600000000001,34.362999999999985,0.0,0.0,0.0,3.0,0.0,0.0,0.0,0.0,0.0,46.92890371420919,2.831819966070785
3-hexanone,CCCC(=O)CC,-0.8334,G1,1.7656,30.20599999999998,1.0,0.0,1.0,3.0,0.0,0.0,0.0,0.0,17.07,44.72548369985636,3.002590528674132
3-methylheptane,CCCCC(C)CC,-5.1591,G1,3.2227000000000023,38.98,0.0,0.0,0.0,4.0,0.0,0.0,0.0,0.0,0.0,53.29384582860581,2.862065598305084
"1,4-dimethylcyclohexane",CC1CCC(C)CC1,-4.4657,G1,2.832600000000001,36.79599999999999,0.0,0.0,0.0,0.0,0.0,1.0,1.0,1.0,0.0,52.288014675076575,2.1923771580194718
n-butyl propionate,CCCCOC(=O)CC,-1.9385,G1,1.7397,36.158,2.0,0.0,2.0,4.0,0.0,0.0,0.0,0.0,26.3,56.20397104375984,2.9730624080867365
"1,2-diiodoethene (cis)",I\C=C/I,-2.7813,G1,2.3276000000000003,37.18000000000001,0.0,0.0,2.0,0.0,0.0,0.0,0.0,0.0,0.0,52.938266352129176,2.549193338482967
potassium formate,[K+].[O-]C=O,0.9288,G3,-4.629899999999999,6.064,2.0,0.0,3.0,0.0,0.0,0.0,0.0,0.0,40.13,66.6175715754319,0.0
"2,2-dimethylpentane",CCCC(C)(C)C,-4.3575,G1,2.832600000000001,34.362999999999985,0.0,0.0,0.0,1.0,0.0,0.0,0.0,0.0,0.0,46.92890371420919,3.154490065368808
2-methyl-2-pentanol,CCCC(C)(C)O,-0.4988,G1,1.5574,31.205799999999986,1.0,1.0,1.0,2.0,0.0,0.0,0.0,0.0,20.23,45.3581953520086,3.154490065368808
bethanechol chloride,[Cl-].CC(C[N+](C)(C)C)OC(N)=O,0.5021,G1,-2.819599999999996,43.0298,2.0,1.0,5.0,3.0,0.0,0.0,0.0,0.0,52.32,79.66676015012068,0.0
"2,2-dimethylhexane",CCCCC(C)(C)C,-5.7568,G1,3.2227000000000023,38.98,0.0,0.0,0.0,2.0,0.0,0.0,0.0,0.0,0.0,53.29384582860581,3.1117661943884265
dicyanodiamidine sulfate,NC(N)=NC(N)=O.NC(N)=NC(N)=O.O[S](O)(=O)=O,-0.7814,G1,-3.9758,64.96379999999999,4.0,8.0,15.0,0.0,0.0,0.0,0.0,0.0,289.58000000000004,106.63064667025655,-2.057142842351474e-07
3-methylcyclohexanone,CC1CCCC(=O)C1,-1.8738,G1,1.7656,32.63899999999998,1.0,0.0,1.0,0.0,0.0,1.0,1.0,1.0,17.07,50.08459466072373,2.336356083029012
1-methylcyclohexene,CC1=CCCCC1,-3.2671,G1,2.5067000000000004,32.22499999999999,0.0,0.0,0.0,0.0,0.0,0.0,1.0,1.0,0.0,45.23346952849571,2.4026860869140862
2-methylhexane,CCCCC(C)C,-4.5961,G1,2.832600000000001,34.362999999999985,0.0,0.0,0.0,3.0,0.0,0.0,0.0,0.0,0.0,46.92890371420919,2.678257743164726
allyl acetate,CC(=O)OCC=C,-0.5534,G1,0.7355,26.829999999999988,2.0,0.0,2.0,2.0,0.0,0.0,0.0,0.0,26.3,42.78448378278237,2.9670528832697767
1-chloro-2-butene,C/C=C/CCl,-1.9569,G1,1.8013,25.53399999999999,0.0,0.0,1.0,1.0,0.0,0.0,0.0,0.0,0.0,37.44774056571679,2.622415807990217
2-heptene,CCCC\C=C\C,-3.816,G3,2.752700000000001,34.33899999999999,0.0,0.0,0.0,3.0,0.0,0.0,0.0,0.0,0.0,46.23930068202494,2.689157411839952
n-butylformate,CCCCOC=O,-1.1307,G3,0.9595,26.923999999999985,2.0,0.0,2.0,4.0,0.0,0.0,0.0,0.0,26.3,43.47408681496663,2.558780869327957
chlorofluoromethane,FCCl,-0.8202,G1,1.1522,11.828,0.0,0.0,2.0,0.0,0.0,0.0,0.0,0.0,0.0,23.20805265763746,1.6329931618554523
dimethyl selenide,C[Se]C,-0.6502,G1,0.7867999999999999,17.482,0.0,0.0,1.0,0.0,0.0,0.0,0.0,0.0,0.0,27.384754223332344,1.6329931618554523
"acetamide, 2,2,2-tribromo-",NC(=O)C(Br)(Br)Br,-1.2668,G1,1.3102,38.7064,1.0,1.0,5.0,0.0,0.0,0.0,0.0,0.0,43.09,66.20824875620671,3.7911184170869663
trichloroacetamide,NC(=O)C(Cl)(Cl)Cl,-1.0966,G1,0.8418999999999999,29.4844,1.0,1.0,5.0,0.0,0.0,0.0,0.0,0.0,43.09,55.51540461992766,3.7911184170869663
"1,1-dichloro-1-nitroethane",CC(Cl)(Cl)[N+]([O-])=O,-1.7603,G1,1.4144,27.1054,2.0,0.0,5.0,1.0,0.0,0.0,0.0,0.0,43.14,50.363701318489305,3.7911184170869663
"2,3-dimethyl-3-pentanol",CCC(C)(O)C(C)C,-0.8504,G3,1.8034,35.75279999999999,1.0,1.0,1.0,2.0,0.0,0.0,0.0,0.0,20.23,51.723137466405205,3.708324167474306
"1,1-dichloro-1-nitropropane",CCC(Cl)(Cl)[N+]([O-])=O,-1.4996,G1,1.8045,31.722399999999997,2.0,0.0,5.0,2.0,0.0,0.0,0.0,0.0,43.14,56.72864343288592,3.9084966379068447
"2-ethyl-2-nitro-1,3-propanediol",CCC(CO)(CO)[N+]([O-])=O,0.8264,G1,-0.6034999999999999,34.187999999999995,4.0,2.0,5.0,4.0,0.0,0.0,0.0,0.0,83.6,58.4404627123078,4.305619426082996
"3-hydroxy-2,2-dimethylpropanal",CC(C)(CO)C=O,-0.3279,G1,0.2038,26.930799999999987,2.0,1.0,2.0,2.0,0.0,0.0,0.0,0.0,37.3,43.15477533765576,3.575471150366868
"2-propanol, 1,3-dichloro-2-methyl-",CC(O)(CCl)CCl,-0.1822,G1,1.215,32.06379999999999,1.0,1.0,3.0,2.0,0.0,0.0,0.0,0.0,20.23,53.23484357697873,3.3604351426960584
"1,3-propanediol, 2,2-bis (acetyloxy)methyl -, di",CC(=O)OCC(COC(C)=O)(COC(C)=O)COC(C)=O,-1.5686,G1,0.2251999999999994,68.96500000000003,8.0,0.0,8.0,8.0,0.0,0.0,0.0,0.0,105.20000000000002,122.21882571879144,5.01638998398724
"4-heptanol, 4-methyl-",CCCC(C)(O)CCC,-1.5867,G1,2.3376,40.439800000000005,1.0,1.0,1.0,4.0,0.0,0.0,0.0,0.0,20.23,58.08807958080182,3.4310512772790966
"oxirane, 2-(chloromethyl)-2-methyl-",CC1(CCl)CO1,-0.5504,G1,1.0141,25.07699999999999,1.0,0.0,2.0,1.0,0.0,1.0,1.0,1.0,12.53,42.24505767387869,2.276327168621918
"1,2-dibromo-1-chloroethane",ClC(Br)CBr,-2.5546,G1,2.341100000000001,32.361999999999995,0.0,0.0,3.0,1.0,0.0,0.0,0.0,0.0,0.0,53.14255458039055,2.5395388613593903
methyl isopropyl ether,COC(C)C,-0.057,G1,1.0412,22.144999999999992,1.0,0.0,1.0,1.0,0.0,0.0,0.0,0.0,9.23,32.94762260052625,2.5395388613593908
"acetamide, 2,2-dibromo-",NC(=O)C(Br)Br,-1.0574,G1,0.5876,30.8364,1.0,1.0,4.0,1.0,0.0,0.0,0.0,0.0,43.09,52.34070115056535,3.2575861612334887
"1,1,2-trichloropropane",CC(Cl)C(Cl)Cl,-1.8898,G1,2.4174000000000007,30.808999999999997,0.0,0.0,3.0,1.0,0.0,0.0,0.0,0.0,0.0,52.37893393726779,2.993497243478473
2-chloropropionic acid,CC(Cl)C(O)=O,0.9645,G1,0.6983,22.950799999999997,1.0,1.0,3.0,1.0,0.0,0.0,0.0,0.0,37.3,40.72815733574421,3.2575861612334887
"ethane, 1-chloro-1-nitro-",CC(Cl)[N+]([O-])=O,-1.4374,G1,0.8479,22.3094,2.0,0.0,4.0,1.0,0.0,0.0,0.0,0.0,43.14,40.06043509160763,3.2575861612334887
"benzenesulfonic acid, 4-methyl-, 2-methylphenyl",Cc1ccc(cc1)[S](=O)(=O)Oc2ccccc2C,-3.9417,G1,3.071140000000001,70.17180000000003,3.0,0.0,4.0,3.0,2.0,0.0,0.0,2.0,43.370000000000005,107.1663290417057,2.332705665940394
"ethane, 1,1,1-trichloro-2,2-diethoxy-",CCOC(OCC)C(Cl)(Cl)Cl,-1.6464,G1,2.755700000000001,47.33000000000003,2.0,0.0,5.0,4.0,0.0,0.0,0.0,0.0,18.46,81.70085073947136,3.875658580581269
1-chloro-1-nitropropane,CCC(Cl)[N+]([O-])=O,-1.1887,G1,1.2379999999999998,26.926399999999997,2.0,0.0,4.0,2.0,0.0,0.0,0.0,0.0,43.14,46.42537720600424,3.34341705895396
"2,4-dimethyl-3-pentanol",CC(C)C(O)C(C)C,-1.2201,G1,1.6593,35.68279999999999,1.0,1.0,1.0,2.0,0.0,0.0,0.0,0.0,20.23,51.72313746640519,3.464226847231096
ethylmalonic acid,CCC(C(O)=O)C(O)=O,0.7315,G1,0.1818,29.05259999999999,2.0,2.0,4.0,3.0,0.0,0.0,0.0,0.0,74.6,52.110531189895525,3.9899920112031126
"acenaphthylene, 1,2-dihydro-5-nitro-",[O-][N+](=O)c1ccc2CCc3cccc1c23,-5.3403,G1,2.8466000000000014,58.01040000000003,2.0,0.0,3.0,1.0,2.0,0.0,1.0,3.0,43.14,86.49009644899594,2.483859402971488
"benzoic acid, 2,6-dibromo-3,4,5-trihydroxy-",OC(=O)c1c(Br)c(O)c(O)c(O)c1Br,-0.4188,G1,2.0266,53.7957,4.0,4.0,7.0,1.0,1.0,0.0,0.0,1.0,97.99,94.8698975540041,3.682463305848331
"3-methyl-2,4,6-trinitrophenol",Cc1c(cc(c(O)c1[N+]([O-])=O)[N+]([O-])=O)[N+]([O-])=O,-2.0434,G1,1.4252200000000008,52.807,7.0,1.0,10.0,3.0,1.0,0.0,0.0,1.0,149.64999999999998,92.54950615358896,3.7562550919635713
proxyphylline,CC(O)Cn1cnc2N(C)C(=O)N(C)C(=O)c12,0.623,G1,-1.185499999999999,61.895800000000015,7.0,1.0,7.0,2.0,2.0,0.0,0.0,2.0,82.04999999999998,96.55307499913856,2.858792204521248
3-nitrophthalic acid,OC(=O)c1cccc(c1C(O)=O)[N+]([O-])=O,-1.0214,G3,0.9912,47.01499999999999,4.0,2.0,7.0,3.0,1.0,0.0,0.0,1.0,117.74,82.72577477526953,3.55594512931231
rosolic acid,Oc1ccc(cc1)C(c2ccc(O)cc2)=C3C=CC(=O)C=C3,-2.3837,G1,3.594800000000002,85.52260000000003,3.0,2.0,3.0,2.0,2.0,0.0,1.0,3.0,57.53,127.71844148069108,2.183559110463215
"benzoic acid, 2-benzoyl-, ethyl ester",CCOC(=O)c1ccccc1C(=O)c2ccccc2,-3.4053,G1,3.0943000000000014,72.27300000000004,3.0,0.0,3.0,4.0,2.0,0.0,0.0,2.0,43.370000000000005,111.38485521274188,2.401903395514127
2-hydroxyanthraquinone,Oc1ccc2C(=O)c3ccccc3C(=O)c2c1,-5.3093,G1,2.1676,61.41380000000002,3.0,1.0,3.0,0.0,2.0,0.0,1.0,3.0,54.37,97.32982835310852,2.3304909398632216
"benzoic acid, 2-benzoyl-, methyl ester",COC(=O)c1ccccc1C(=O)c2ccccc2,-3.4776,G5,2.704200000000001,67.65600000000003,3.0,0.0,3.0,3.0,2.0,0.0,0.0,2.0,43.370000000000005,105.01991309834524,2.458399254450608
"2,4(1h,3h)-quinazolinedione, 6,8-dinitro-",[O-][N+](=O)c1cc2C(=O)NC(=O)Nc2c(c1)[N+]([O-])=O,-3.2057,G1,0.0327999999999997,58.49819999999999,6.0,2.0,10.0,2.0,2.0,0.0,0.0,2.0,151.99999999999997,96.18135925821232,3.037497527380838
1-methyl-2(h)-quinolinone,CN1C(=O)C=Cc2ccccc12,-1.0466,G1,1.5385,49.18900000000002,2.0,0.0,2.0,0.0,2.0,0.0,0.0,2.0,22.0,70.06915133321438,3.005244075626373
4-hydroxy-2-methylquinoline,CC1=CC(=O)c2ccccc2N1,-1.2019,G1,1.83652,49.305700000000016,1.0,1.0,2.0,0.0,2.0,0.0,0.0,2.0,32.86,69.85917984661904,2.9921752601559244
"1,2,3-tribromobenzene",Brc1cccc(Br)c1Br,-5.0402,G3,3.9741,49.542,0.0,0.0,3.0,0.0,1.0,0.0,0.0,1.0,0.0,79.03404593642105,3.2478347337367026
"altraric acid, d-",O[C@H]([C@H](O)[C@H](O)C(O)=O)[C@H](O)C(O)=O,0.1999,G2,-3.4008,39.29879999999999,6.0,6.0,8.0,5.0,0.0,0.0,0.0,0.0,155.52,77.6524083130762,4.4503778597717565
"propanedioic acid, oxo-, diethyl ester",CCOC(=O)C(=O)C(=O)OCC,0.5117,G1,-0.3183000000000002,38.273,5.0,0.0,5.0,4.0,0.0,0.0,0.0,0.0,69.67,69.64056047335424,4.010084471791907
2-nitro-1-butanol,CCC(CO)[N+]([O-])=O,-0.3436,G1,0.0339999999999999,28.15919999999999,3.0,1.0,4.0,3.0,0.0,0.0,0.0,0.0,63.37,47.28128684571519,3.5208600674451374
"2,4-dichloro-6-nitrophenol",Oc1c(Cl)cc(Cl)cc1[N+]([O-])=O,-4.0876,G1,2.6072,44.7812,3.0,1.0,6.0,1.0,1.0,0.0,0.0,1.0,63.37,77.48514504795612,3.3738590108748694
"benzoic acid, 3-formyl-2-hydroxy-",OC(=O)c1cccc(C=O)c1O,-2.4423,G1,0.9028999999999998,40.45360000000001,3.0,2.0,4.0,2.0,1.0,0.0,0.0,1.0,74.6,68.07279905276974,3.3188809690716057
"2,4-dinitrobenzoic acid",OC(=O)c1ccc(cc1[N+]([O-])=O)[N+]([O-])=O,-1.0665,G1,1.2011999999999998,46.7101,5.0,1.0,8.0,3.0,1.0,0.0,0.0,1.0,123.58,82.05805253113294,3.3963489782409866
1-methylanthracene,Cc1cccc2cc3ccccc3cc12,-5.8541,G1,4.301420000000002,66.19100000000003,0.0,0.0,0.0,0.0,3.0,0.0,0.0,3.0,0.0,89.15967429736398,2.5325611743067453
"1(3h)-isobenzofuranone, 6-nitro-",[O-][N+](=O)c1ccc2COC(=O)c2c1,-2.6511,G1,1.2652,42.21590000000001,4.0,0.0,5.0,1.0,1.0,0.0,1.0,2.0,69.44,73.0834992468114,2.535184302783738
"1,2-benzenedimethanol",OCc1ccccc1CO,0.0569,G1,0.6712,38.287600000000005,2.0,2.0,2.0,2.0,1.0,0.0,0.0,1.0,40.46,59.749754852682194,2.964000093923802
"benzoic acid, 2-(hydroxymethyl)-",OCc1ccccc1C(O)=O,-1.5508,G1,0.8771,39.32410000000001,2.0,2.0,3.0,2.0,1.0,0.0,0.0,1.0,57.53,63.91127695272596,3.121219318886157
2-ethylnitrobenzene,CCc1ccccc1[N+]([O-])=O,-2.7993,G1,2.1572000000000005,42.47440000000002,2.0,0.0,3.0,2.0,1.0,0.0,0.0,1.0,43.14,64.81426307078998,3.121219318886157
2-nitrobenzyl alcohol,OCc1ccccc1[N+]([O-])=O,-1.4861,G1,1.0871,39.01920000000002,3.0,1.0,4.0,2.0,1.0,0.0,0.0,1.0,63.37,63.243554708589386,3.121219318886157
2-aminoanthracene,Nc1ccc2cc3ccccc3cc2c1,-5.1722,G1,3.575200000000001,65.86640000000001,1.0,1.0,1.0,0.0,3.0,0.0,0.0,3.0,26.02,88.1346228799801,2.474936442179002
"nicotinic acid, ethyl ester",CCOC(=O)c1cccnc1,-0.4313,G1,1.2583,40.193500000000014,3.0,0.0,3.0,2.0,1.0,0.0,0.0,1.0,39.19,65.02094477318394,2.6930079504145
2-chloroiodobenzene,Clc1ccccc1I,-3.54,G1,2.9446000000000003,44.16900000000001,0.0,0.0,2.0,0.0,1.0,0.0,0.0,1.0,0.0,66.99650746742228,3.134861511345448
ethyl n-methylnitrosocarbamate,CCOC(=O)N(C)N=O,-0.5528,G1,0.7561,30.57999999999999,4.0,0.0,5.0,2.0,0.0,0.0,0.0,0.0,58.97,52.53384637523883,3.583388067911339
"1,2,4-tribromobenzene",Brc1ccc(Br)c(Br)c1,-4.808,G3,3.974100000000001,49.54200000000001,0.0,0.0,3.0,0.0,1.0,0.0,0.0,1.0,0.0,79.03404593642107,3.171678030440916
dl-norleucine,CCCCC(N)C(O)=O,-1.0453,G3,0.5884999999999998,35.13619999999998,2.0,2.0,3.0,4.0,0.0,0.0,0.0,0.0,63.32,54.85960814906508,3.2659073992264416
3-chloropentane,CCC(Cl)CC,-2.6307,G1,2.4138,30.222999999999985,0.0,0.0,1.0,2.0,0.0,0.0,0.0,0.0,0.0,44.502285712297656,2.7541847860376616
1-penten-3-ol,CCC(O)C=C,0.0193,G1,0.9433,26.494799999999987,1.0,1.0,1.0,2.0,0.0,0.0,0.0,0.0,20.23,38.30365020542773,2.964900494759057
pyrrolidone,O=C1CCCN1,1.07,G2,-0.1036,22.2437,1.0,1.0,2.0,0.0,0.0,1.0,1.0,1.0,29.1,36.53963050114196,2.3673518510178746
propylpropanedioic acid,CCCC(C(O)=O)C(O)=O,0.6803,G1,0.5719,33.66959999999999,2.0,2.0,4.0,4.0,0.0,0.0,0.0,0.0,74.6,58.47547330429214,3.981406257698735
"1,3-benzenediol, 4,6-dinitro-",Oc1cc(O)c(cc1[N+]([O-])=O)[N+]([O-])=O,-3.4086,G1,0.9142,43.08040000000001,6.0,2.0,8.0,2.0,1.0,0.0,0.0,1.0,126.74,76.32582206888858,3.4178886149330863
"benzoic acid, 5-formyl-2-hydroxy-",OC(=O)c1cc(C=O)ccc1O,-2.6354,G1,0.9028999999999998,40.45360000000001,3.0,2.0,4.0,2.0,1.0,0.0,0.0,1.0,74.6,68.07279905276974,3.254192991842129
pentylmalonic acid,CCCCCC(C(O)=O)C(O)=O,0.5921,G1,1.3521,42.9036,2.0,2.0,4.0,6.0,0.0,0.0,0.0,0.0,74.6,71.20535753308536,3.804899704733388
2-methyl-3-hexanol,CCCC(O)C(C)C,-1.3093,G3,1.8034,35.75279999999999,1.0,1.0,1.0,3.0,0.0,0.0,0.0,0.0,20.23,51.723137466405205,3.170819357347939
"benzenesulfonic acid, 3-(dimethylamino)-",CN(C)c1cccc(c1)[S](O)(=O)=O,0.2983,G1,0.9993,50.583600000000025,3.0,1.0,5.0,2.0,1.0,0.0,0.0,1.0,57.61,77.54975702853417,3.212578736587859
"2-furancarboxylic acid, 5-chloro-",[O-]C(=O)c1oc(Cl)cc1,-1.7188,G1,0.2965,28.0485,3.0,0.0,4.0,1.0,1.0,0.0,0.0,1.0,53.27,55.849696577091855,2.977648531786832
helicin,OC[C@H]1O[C@@H](Oc2ccccc2C=O)[C@H](O)[C@@H](O)[C@@H]1O,-1.1985,G1,-1.3222000000000005,66.22470000000003,7.0,4.0,7.0,4.0,1.0,1.0,1.0,2.0,116.45,114.54571433458555,2.1705786914097764
"3,4-dimethylbenzoic acid",Cc1ccc(cc1C)C([O-])=O,-3.0653,G1,0.6669399999999999,40.24650000000001,2.0,0.0,2.0,1.0,1.0,0.0,0.0,1.0,40.13,65.48198531492656,3.1515496683060507
m-nitrobenzyl alcohol,OCc1cccc(c1)[N+]([O-])=O,-2.4142,G1,1.0871,39.01920000000002,3.0,1.0,4.0,2.0,1.0,0.0,0.0,1.0,63.37,63.243554708589386,3.0058892189147386
p-cyanobenzoic acid,OC(=O)c1ccc(cc1)C#N,-2.0885,G3,1.2564799999999998,38.11630000000001,2.0,1.0,3.0,1.0,1.0,0.0,0.0,1.0,61.09,63.50962288199867,3.0316389681074445
p-nitrobenzyl alcohol,OCc1ccc(cc1)[N+]([O-])=O,-1.8841,G1,1.0871,39.01920000000002,3.0,1.0,4.0,2.0,1.0,0.0,0.0,1.0,63.37,63.243554708589386,2.9138015626758045
4-dimethylamino benzoic acid,CN(C)c1ccc(cc1)C(O)=O,-3.3979,G1,1.4508,47.72830000000002,2.0,1.0,3.0,2.0,1.0,0.0,0.0,1.0,40.54,71.24181898512994,2.92914559954076
m-hydroxybenzyl alcohol,OCc1cccc(O)c1,-0.2678,G1,0.8844999999999998,34.029599999999995,2.0,2.0,2.0,1.0,1.0,0.0,0.0,1.0,40.46,53.3848127382856,2.9368661023365914
"acetamide, 2-cyano-n-phenyl-",O=C(CC#N)Nc1ccccc1,-2.7275,G1,1.5387799999999998,45.30170000000002,2.0,1.0,3.0,2.0,1.0,0.0,0.0,1.0,52.89,70.6301934278073,2.541829961180196
m-hydroxyphenylacetic acid,OC(=O)Cc1cccc(O)c1,0.8177,G1,1.0193,39.44660000000002,2.0,2.0,3.0,2.0,1.0,0.0,0.0,1.0,57.53,63.91127695272596,2.7909314514807626
"1-pentanamine, n,n-dipentyl-",CCCCCN(CCCCC)CCCCC,-4.0326,G1,4.859000000000005,75.01500000000007,1.0,0.0,1.0,12.0,0.0,0.0,0.0,0.0,3.24,103.60827429958545,3.57988974451701
4-methylphenylisothiocyanate,Cc1ccc(cc1)N=C=S,-4.7213,G1,2.7293200000000004,45.86500000000002,2.0,0.0,2.0,1.0,1.0,0.0,0.0,1.0,12.36,65.41539008135518,2.9960277321018163
p-methylstyrene,Cc1ccc(C=C)cc1,-3.1232,G1,2.638020000000001,41.27000000000002,0.0,0.0,0.0,1.0,1.0,0.0,0.0,1.0,0.0,55.83662643050253,3.009781947786601
p-hydroxybenzyl alcohol,OCc1ccc(O)cc1,-1.2678,G1,0.8845000000000001,34.029599999999995,2.0,2.0,2.0,1.0,1.0,0.0,0.0,1.0,40.46,53.3848127382856,2.881555877646136
"1,4-benzenedicarboxaldehyde",O=Cc1ccc(C=O)cc1,-2.8265,G1,1.3116,37.217000000000006,2.0,0.0,2.0,2.0,1.0,0.0,0.0,1.0,34.14,58.4843315483777,2.999871950290996
methylbutyrate,CCCC(=O)OC,-0.8331,G4,0.9595,26.923999999999985,2.0,0.0,2.0,2.0,0.0,0.0,0.0,0.0,26.3,43.47408681496663,3.002590528674132
"1,2-propylene glycol diacetate",CC(COC(C)=O)OC(C)=O,-0.2046,G1,0.5011000000000001,37.861,4.0,0.0,4.0,3.0,0.0,0.0,0.0,0.0,52.6,65.47903837331049,3.4425479949638413
"decanedioic acid, bis(2-ethoxyethyl) ester",CCOCCOC(=O)CCCCCCCCC(=O)OCCOCC,-3.1972,G1,3.266600000000002,91.84000000000007,6.0,0.0,6.0,17.0,0.0,0.0,0.0,0.0,71.06,145.720492090687,3.2401387407628253
diethyl azelate,CCOC(=O)CCCCCCCC(=O)OCC,-2.99,G1,2.843300000000001,65.58500000000005,4.0,0.0,4.0,10.0,0.0,0.0,0.0,0.0,52.60000000000001,103.66869105969016,3.18321125293434
methyl valerate,CCCCC(=O)OC,-1.3606,G5,1.3496,31.540999999999983,2.0,0.0,2.0,3.0,0.0,0.0,0.0,0.0,26.3,49.83902892936323,2.988598647973156
"1,4-diiodobenzene",Ic1ccc(I)cc1,-5.3723,G1,2.8958000000000013,51.87600000000001,0.0,0.0,2.0,0.0,1.0,0.0,0.0,1.0,0.0,75.95507936158425,3.0324555320336755
3-nonanol,CCCCCCC(O)CC,-2.6608,G1,2.7277000000000013,45.05680000000002,1.0,1.0,1.0,6.0,0.0,0.0,0.0,0.0,20.23,64.45302169519842,2.8861627976234385
"ethane, 1,2-diiodo-",ICCI,-3.2196,G1,1.8564,37.77400000000001,0.0,0.0,2.0,1.0,0.0,0.0,0.0,0.0,0.0,53.62786938431343,1.9747448713915892
"3,3-dimethyl-1-butanol",CC(C)(C)CCO,-1.1308,G3,1.4149,31.15779999999998,1.0,1.0,1.0,1.0,0.0,0.0,0.0,0.0,20.23,45.35819535200859,3.154490065368808
"2,4-dimethyl-2-pentanol",CC(C)CC(C)(C)O,-0.9307,G5,1.8034,35.75279999999999,1.0,1.0,1.0,2.0,0.0,0.0,0.0,0.0,20.23,51.7231374664052,3.388924101358251
"urea, (1,1-dimethylpropyl)-",CCC(C)(C)NC(N)=O,-1.0142,G1,0.8433000000000002,37.08909999999999,1.0,2.0,3.0,2.0,0.0,0.0,0.0,0.0,55.12,55.61523658047711,3.713999809664675
2-methyl-2-hexanol,CCCCC(C)(C)O,-1.0784,G1,1.9475,35.822799999999994,1.0,1.0,1.0,3.0,0.0,0.0,0.0,0.0,20.23,51.7231374664052,3.1117661943884265
2-methyl-2-heptanol,CCCCCC(C)(C)O,-1.7168,G1,2.337600000000001,40.439800000000005,1.0,1.0,1.0,4.0,0.0,0.0,0.0,0.0,20.23,58.08807958080181,3.072989461365733
methyl isobutyl ether,COCC(C)C,-0.9007,G1,1.2888000000000002,26.713999999999988,1.0,0.0,1.0,2.0,0.0,0.0,0.0,0.0,9.23,39.31256471492286,2.6272148478988635
methoxyacetic acid,COCC(O)=O,1.0454,G1,-0.2826,19.5118,2.0,1.0,3.0,2.0,0.0,0.0,0.0,0.0,46.53,35.53843633836942,2.831257109931365