Name,SMILES,Solubility,Group,MolLogP,MolMR,NumHAcceptors,NumHDonors,NumHeteroatoms,NumRotatableBonds,NumAromaticRings,NumSaturatedRings,NumAliphaticRings,RingCount,TPSA,LabuteASA,BalabanJ
aspidospermine,CC[C@@]12CCCN3CC[C@@]4([C@@H](CC1)N(C(C)=O)c5c(OC)cccc45)[C@@H]23,-1.3269,G1,3.7264000000000026,102.79000000000006,3.0,0.0,4.0,2.0,1.0,3.0,4.0,5.0,32.78,156.04188700568315,1.7705855206035035
flurenol,OC(=O)[C@@]1(O)c2ccccc2c3ccccc13,-1.9657,G1,1.9875000000000005,62.51260000000004,2.0,2.0,3.0,1.0,2.0,0.0,1.0,3.0,57.53,97.96254000526078,2.429981977237712
propoxyphene,CCC(=O)O[C@@](Cc1ccccc1)([C@H](C)CN(C)C)c2ccccc2,-5.0097,G1,4.275500000000004,102.36700000000006,3.0,0.0,3.0,8.0,2.0,0.0,0.0,2.0,29.54,151.17281946928108,2.526296518136546
"1,1'-sulfonylbis(2-chloroethane)",ClCC[S](=O)(=O)CCCl,-1.5031,G1,0.8788,40.093800000000016,2.0,0.0,5.0,4.0,0.0,0.0,0.0,0.0,34.14,65.06600820656931,3.734562819666556
methylguanidine,CN=C(N)N,-1.6135,G1,-1.1103999999999996,21.73380000000001,1.0,2.0,3.0,0.0,0.0,0.0,0.0,0.0,64.39999999999999,30.67929702211171,3.1431973062780685
thiazolsulfone,Nc1ccc(cc1)[S](=O)(=O)c2sc(N)nc2,-2.805,G1,1.1403,62.832600000000006,6.0,2.0,7.0,2.0,2.0,0.0,0.0,2.0,99.07,96.653688352731,2.509149455148257
"cyclobutaneacetic acid, 3-acetyl-2,2-dimethyl-",CC(=O)C1CC(CC(O)=O)C1(C)C,-0.5752,G1,1.7124,48.31180000000002,2.0,1.0,3.0,3.0,0.0,1.0,1.0,1.0,54.37,78.13517685615331,2.585646200478558
chenodeoxycholic acid,C[C@H](CCC(O)=O)[C@H]1CC[C@H]2[C@@H]3[C@H](O)C[C@@H]4C[C@H](O)CC[C@]4(C)[C@H]3CC[C@]12C,-3.6402,G1,4.477900000000004,108.64740000000008,3.0,3.0,4.0,4.0,0.0,4.0,4.0,4.0,77.76,169.65381840146642,1.5548220176091474
equilin,C[C@]12CC[C@H]3C(=CCc4cc(O)ccc34)[C@@H]1CCC2=O,-5.2795,G1,3.7375000000000025,77.70680000000003,2.0,1.0,2.0,0.0,1.0,2.0,3.0,4.0,37.3,119.05936785172412,1.774238222952189
hematein,Oc1ccc2c(OCC3(O)CC4=CC(=O)C(=CC4=C23)O)c1O,-2.6994,G1,1.3296,75.5552,6.0,4.0,6.0,0.0,1.0,0.0,3.0,4.0,107.22,124.44652404465732,2.02947500695494
glycocholic acid,C[C@H](CCC(=O)NCC(O)=O)[C@H]1CC[C@H]2[C@@H]3[C@H](O)C[C@@H]4C[C@H](O)CC[C@]4(C)[C@H]3C[C@H](O)[C@]12C,-5.1495,G1,2.564899999999999,123.04690000000006,5.0,5.0,7.0,6.0,0.0,4.0,4.0,4.0,127.09000000000002,196.88932066610744,1.4868660433893963
picropodophyllin,COc1cc(cc(OC)c1OC)[C@H]2[C@H]3[C@H](COC3=O)[C@@H](O)c4cc5OCOc5cc24,-3.6174,G1,2.4092,103.40480000000004,8.0,1.0,8.0,4.0,2.0,1.0,3.0,5.0,92.68,172.7574522382205,1.7415109606075292
safranine t,[Cl-].Cc1cc2nc3c(C)c(N)ccc3[n+](c4ccccc4)c2cc1N,-0.8462,G1,0.4499400000000014,99.07980000000002,3.0,2.0,5.0,1.0,4.0,0.0,0.0,4.0,68.81,152.06385271288784,1.82249878500084e-06
cholanthrene,C1Cc2c3ccc4ccccc4c3cc5cccc1c25,-7.8613,G3,5.244800000000003,86.36800000000004,0.0,0.0,0.0,0.0,4.0,0.0,1.0,5.0,0.0,117.20044978996656,2.102237440474606
tetryl,CN(c1c(cc(cc1[N+]([O-])=O)[N+]([O-])=O)[N+]([O-])=O)[N+]([O-])=O,-3.5889,G1,1.0391,61.802599999999984,8.0,0.0,13.0,5.0,1.0,0.0,0.0,1.0,175.79999999999998,108.1382178143311,3.769454572555376
aucubin,OC[C@H]1O[C@@H](O[C@@H]2OC=C[C@H]3[C@H](O)C=C(CO)[C@@H]23)[C@H](O)[C@@H](O)[C@@H]1O,0.0119,G1,-2.8014999999999985,77.02080000000001,9.0,6.0,9.0,4.0,0.0,1.0,3.0,3.0,149.07,137.5577793061226,1.7493468910990029
"2,4,6-trimethylbenzoic acid",Cc1cc(C)c(c(C)c1)C(O)=O,-2.3566,G1,2.31006,47.61230000000002,1.0,1.0,2.0,1.0,1.0,0.0,0.0,1.0,37.3,71.84692742932317,3.3798143363005275
"benzoic acid, 2,6-dihydroxy-4-methyl-",Cc1cc(O)c(C(O)=O)c(O)c1,-2.0496,G1,1.1044199999999995,41.467900000000014,3.0,3.0,4.0,1.0,1.0,0.0,0.0,1.0,77.76,68.70551070492198,3.379814336300526
"2,4,6(1h,3h,5h)-pyrimidinetrione, 5-nitro-",[O-][N+](=O)C1C(=O)NC(=O)NC1=O,-2.2840000000000003,G3,-2.0023,32.46379999999999,5.0,2.0,8.0,1.0,0.0,1.0,1.0,1.0,118.41,65.06551260733733,2.878898348986729
santonin,C[C@H]1[C@@H]2CC[C@@]3(C)C=CC(=O)C(=C3[C@H]2OC1=O)C,-3.0905,G1,2.419600000000001,66.72200000000002,3.0,0.0,3.0,0.0,0.0,2.0,3.0,3.0,43.370000000000005,106.88833053402028,2.0989565315857823
epiandrosterone,C[C@]12CC[C@H](O)C[C@@H]1CC[C@@H]3[C@@H]2CC[C@@]4(C)[C@H]3CCC4=O,-4.1577,G1,3.959100000000003,82.74080000000006,2.0,1.0,2.0,0.0,0.0,4.0,4.0,4.0,37.3,128.24064032509136,1.6375393766570927
ecgonine,CN1C2CCC1[C@H]([C@@H](O)C2)C(O)=O,-0.0173,G1,-0.0854000000000002,46.32260000000002,3.0,2.0,4.0,1.0,0.0,2.0,2.0,2.0,60.77,77.15694891058313,2.214593868963392
fervenulin,CN1C(=O)N(C)c2nncnc2C1=O,-1.9849,G1,-1.5778,47.81500000000001,7.0,0.0,7.0,0.0,2.0,0.0,0.0,2.0,82.66999999999999,77.65263252644085,3.190149417965173
osthole,COc1ccc2C=CC(=O)Oc2c1CC=C(C)C,-4.3087,G1,3.3103000000000016,72.17100000000003,3.0,0.0,3.0,3.0,2.0,0.0,0.0,2.0,39.44,105.69300145898724,2.673114417994773
binapacryl,CCC(C)c1cc(cc(c1OC(=O)C=C(C)C)[N+]([O-])=O)[N+]([O-])=O,-5.5083,G1,3.888100000000004,83.52280000000003,6.0,0.0,8.0,6.0,1.0,0.0,0.0,1.0,112.58,132.6072978914324,3.554156210778205
iridomyrmecin,CC1CCC2C(C)C(=O)OCC12,-1.9249,G1,1.8416,45.50100000000002,2.0,0.0,2.0,0.0,0.0,2.0,2.0,2.0,26.3,73.28713507989119,2.136193163680383
"pyrrolo[2,1-b]quinazolin-9(1h)-one,2,3-dihydro-3",O[C@H]1CCN2C(=O)c3ccccc3N=C12,-2.106,G1,0.8336000000000001,55.57980000000003,4.0,1.0,4.0,0.0,2.0,0.0,1.0,3.0,55.120000000000005,85.80708614162089,2.4613620410536785
caulophylline,CN1C[C@@H]2C[C@@H](C1)C3=CC=CC(=O)N3C2,0.6484,G1,0.8972,59.04700000000003,3.0,0.0,3.0,0.0,1.0,1.0,2.0,3.0,25.24,89.32531085100374,2.0969111742330933
lumazine,O=C1NC(=O)c2nccnc2N1,-2.1183,G1,-0.9936000000000004,40.7794,4.0,2.0,6.0,0.0,2.0,0.0,0.0,2.0,91.5,65.31470377510574,3.0939322696636298
"1h-pyrrole-3-propanoic acid, 2,5-dihydro-4-methy",CC1=C(CCC(O)=O)C(=O)NC1=O,-0.6608,G1,-0.1758999999999999,42.71950000000001,3.0,2.0,5.0,3.0,0.0,0.0,1.0,1.0,83.47,74.42707387882767,2.7216330943056946
d-quercitol,O[C@@H]1C[C@@H](O)[C@H](O)C(O)[C@H]1O,-0.1739,G1,-2.8054,34.651,5.0,5.0,5.0,0.0,0.0,1.0,1.0,1.0,101.15,63.5292992072634,2.625358332036857
"azulene, 1,4-dimethyl-7-(1-methylethyl)-",CC(C)c1ccc(C)c2ccc(C)c2c1,-5.4752,G1,4.531640000000004,66.62700000000004,0.0,0.0,0.0,1.0,0.0,0.0,2.0,2.0,0.0,92.2922327776796,2.712014364325654
monotropitoside,COC(=O)c1ccccc1OC2OC(COC3OCC(O)C(O)C3O)C(O)C(O)C2O,-0.7418,G1,-2.884799999999998,98.80330000000004,12.0,6.0,12.0,6.0,1.0,2.0,2.0,3.0,184.6,176.6586390603486,1.6778960743635525
1(2h)-isoquinolinone,O=C1NC=Cc2ccccc12,-2.4842,G1,1.5281,44.56870000000002,1.0,1.0,2.0,0.0,2.0,0.0,0.0,2.0,32.86,63.49423773222244,3.0307899009392414
chrysarobin,Cc1cc(O)c2c(O)c3c(O)cccc3cc2c1,-3.0585,G1,3.4182200000000016,71.18540000000002,3.0,3.0,3.0,0.0,3.0,0.0,0.0,3.0,60.69,103.54237555395204,2.613927720326788
leucopterin,NC1=NC(=O)C2=C(N1)NC(=O)C(=O)N2,-5.1655,G1,-2.1181000000000005,48.01749999999998,5.0,4.0,8.0,0.0,2.0,0.0,0.0,2.0,137.48999999999998,74.81611657216223,3.1145073823856797
atropic acid,OC(=O)C(=C)c1ccccc1,-2.0568,G1,1.7844,43.11180000000002,1.0,1.0,2.0,2.0,1.0,0.0,0.0,1.0,37.3,64.79238228274231,2.9479803431399967
2-amino-1-phenyl-propan-1-ol,C[C@H](N)[C@@H](O)c1ccccc1,-0.8786,G1,1.0672,45.05120000000002,2.0,2.0,2.0,2.0,1.0,0.0,0.0,1.0,46.25,66.66035391189551,2.7679177813074443
alpha-d-glucose,OC[C@H]1O[C@H](O)[C@H](O)[C@@H](O)[C@@H]1O,0.4433,G1,-3.2214000000000005,35.986,6.0,5.0,6.0,1.0,0.0,1.0,1.0,1.0,110.38,68.64284443677029,2.634408987061597
"1,3-cyclohexanedione, 5-phenyl-",OC1=CC(=O)C[C@@H](C1)c2ccccc2,-2.5113,G1,2.575000000000001,54.13580000000003,2.0,1.0,2.0,1.0,1.0,0.0,1.0,2.0,37.3,82.88137747240292,2.221777160345017
anabasine,C1CC[C@H](NC1)c2cccnc2,0.7898,G1,1.8962,48.83170000000003,2.0,1.0,2.0,1.0,1.0,1.0,1.0,2.0,24.92,73.01979270250531,2.082510086938828
gentisyl alcohol,OCc1cc(O)ccc1O,0.8534,G1,0.5900999999999998,35.69440000000001,3.0,3.0,3.0,1.0,1.0,0.0,0.0,1.0,60.69,58.1790464904816,3.090683646458197
bayer 15080,O=Nc1ccc(NNC(=O)c2ccccc2)cc1,-4.6835,G1,2.841400000000001,69.42790000000002,4.0,2.0,5.0,4.0,2.0,0.0,0.0,2.0,70.56,103.77955391168294,1.9482522697622489
salinazid,O=C(NN\C=C/1C=CC=CC1=O)c2ccncc2,-3.6835,G1,0.8950000000000001,66.20890000000001,4.0,2.0,5.0,3.0,1.0,0.0,1.0,2.0,71.09,103.88885235307292,1.9135277150001917
"1h-indole, 2,3-dihydro-",C1Cc2ccccc2N1,-1.0427,G1,1.6545999999999998,38.63570000000001,1.0,1.0,1.0,0.0,1.0,0.0,1.0,2.0,12.03,54.70531837836899,2.53519473965517
"2-butenal, 2-methyl-, (e)-",C\C=C(/C)C=O,-0.527,G1,1.1515,25.49499999999999,1.0,0.0,1.0,1.0,0.0,0.0,0.0,0.0,17.07,37.67093855327549,3.5040318284625838
"1,3-dioxolane, 2-methyl-",CC1OCCO1,0.8789,G1,0.3792,21.365999999999996,2.0,0.0,2.0,0.0,0.0,1.0,1.0,1.0,18.46,37.05533667650391,2.184105569636068
norcamphor,O=C1CC2CCC1C2,-1.7565,G1,1.3755,30.454999999999984,1.0,0.0,1.0,0.0,0.0,2.0,2.0,2.0,17.07,49.078763507194495,2.216563489909098
"3-hydroxy-4-oxo-4h-pyran-2,6-dicarboxylic acid",OC(O)=C1OC(=CC(=O)C1=O)C(O)=O,-1.3769999999999998,G1,-0.5915999999999999,39.1014,6.0,3.0,7.0,1.0,0.0,0.0,1.0,1.0,121.13,76.52467928253768,3.186501178171849
"ethanone, 1-(4-hydroxy-3-methoxyphenyl)-",COc1cc(ccc1O)C(C)=O,-1.5216,G1,1.6034,44.66330000000002,3.0,1.0,3.0,2.0,1.0,0.0,0.0,1.0,46.53,70.59553054443344,3.134300249949544
norvaline,CCC[C@@H](N)C(O)=O,-0.0687,G1,0.1983999999999999,30.51919999999999,2.0,2.0,3.0,3.0,0.0,0.0,0.0,0.0,63.32,48.49466603466847,3.318087197283996
citraconic acid,C\C(=C\C(O)=O)C(O)=O,0.7795,G3,0.1018999999999999,29.02859999999999,2.0,2.0,4.0,2.0,0.0,0.0,0.0,0.0,74.6,51.42092815771127,4.169214533734282
"phenol, 2-methyl-5-(1-methylethyl)-",CC(C)c1ccc(C)c(O)c1,-2.0798,G1,2.824020000000001,46.93280000000003,1.0,1.0,1.0,1.0,1.0,0.0,0.0,1.0,20.23,67.6854053292794,3.051645448959173
beta-eucaine,CC1CC(CC(C)(C)N1)OC(=O)c2ccccc2,-1.922,G1,2.762500000000001,71.55620000000005,3.0,1.0,3.0,2.0,1.0,1.0,1.0,2.0,38.33,108.53498050869592,1.992713838076204
"acetic acid, oxo(phenylamino)-",OC(=O)C(=O)Nc1ccccc1,-1.3019,G1,0.7096999999999998,42.70750000000002,2.0,2.0,4.0,1.0,1.0,0.0,0.0,1.0,66.39999999999999,68.82842748418176,2.650397773274872
n-benzyl-3-chloropropanamide,ClCCC(=O)NCc1ccccc1,-3.2959,G1,1.9317,53.62570000000003,1.0,1.0,3.0,4.0,1.0,0.0,0.0,1.0,29.1,82.9058220876169,2.310042822879905
"2-butenoic acid, 4-[(aminocarbonyl)amino]-4-oxo-",NC(=O)NC(=O)C=CC(O)=O,-1.9202,G1,-1.1779000000000002,34.5019,3.0,3.0,6.0,2.0,0.0,0.0,0.0,0.0,109.49,61.67796938617978,3.8779586826574968
bis(ethylxanthogen),CCOC(=S)SSC(=S)OCC,-4.9432,G1,3.010600000000001,63.63000000000002,6.0,0.0,6.0,2.0,0.0,0.0,0.0,0.0,18.46,91.15479469031624,3.402570682630092
trimethyleneoxide,C1COC1,1.236,G1,0.4067,15.436000000000003,1.0,0.0,1.0,0.0,0.0,1.0,1.0,1.0,9.23,25.576849332600418,2.0
(z)-2-butenoic acid (isocrotonic acid),C\C=C/C(O)=O,1.065,G1,0.6471,22.449799999999996,1.0,1.0,2.0,1.0,0.0,0.0,0.0,0.0,37.3,36.10023019107489,3.301627871993482
4-aminopyridine,Nc1ccncc1,-0.0529,G1,0.6638000000000001,28.6494,2.0,1.0,2.0,0.0,1.0,0.0,0.0,1.0,38.91,41.99094179745619,3.0214653097240864
2-aminopyridine,Nc1ccccn1,0.9757,G3,0.6638000000000001,28.6494,2.0,1.0,2.0,0.0,1.0,0.0,0.0,1.0,38.91,41.9909417974562,3.0214653097240864
"1,4-dithiane",C1CSCCS1,-1.6029,G1,1.4664,34.65,2.0,0.0,2.0,0.0,0.0,1.0,1.0,1.0,0.0,47.07446626822063,2.0
suberic acid,OC(=O)CCCCCCC(O)=O,-1.1673,G3,1.4962000000000002,42.97360000000001,2.0,2.0,4.0,7.0,0.0,0.0,0.0,0.0,74.6,71.20535753308538,3.0073056362946597
di-2-chloroethyl sulfide,ClCCSCCCl,-2.3666,G1,2.1972000000000005,38.76500000000001,1.0,0.0,3.0,4.0,0.0,0.0,0.0,0.0,0.0,58.56371985014796,2.447472887876344
"2,4-hexadienedioic acid,",OC(=O)\C=C/C=C\C(O)=O,-2.8516,G1,0.2680000000000002,33.551599999999986,2.0,2.0,4.0,3.0,0.0,0.0,0.0,0.0,74.6,57.09626723992363,3.730805714767907
iodine cyanide,IC#N,-0.6333,G1,0.90248,19.633000000000003,1.0,0.0,2.0,0.0,0.0,0.0,0.0,0.0,23.79,32.3936688303419,2.475534205527556
2-bromo-2-methylpropane,CC(C)(C)Br,-2.3586,G1,2.1798,28.67999999999999,0.0,0.0,1.0,0.0,0.0,0.0,0.0,0.0,0.0,41.70162497666073,3.0237157840738176
borneol,CC1(C)C2CCC1(C)C(O)C2,-2.3202,G3,2.1935,45.23580000000002,1.0,1.0,1.0,0.0,0.0,2.0,2.0,2.0,20.23,68.80630150253657,2.396254979141823
hydrocortisone tebutate,CC(C)(C)CC(=O)OCC(=O)C1(O)CCC2C3CCC4=CC(=O)CCC4(C)C3C(O)CC12C,-5.5111,G1,3.7687000000000026,123.08760000000008,6.0,2.0,6.0,4.0,0.0,3.0,4.0,4.0,100.90000000000002,196.7013973898704,1.5453793324674707
tetranitromethane,[O-][N+](=O)C([N+]([O-])=O)([N+]([O-])=O)[N+]([O-])=O,-2.3381,G1,-1.2954999999999997,30.708600000000008,8.0,0.0,12.0,4.0,0.0,0.0,0.0,0.0,172.56,67.35115391782874,5.601028023813307
pholcodine,CN1CC[C@]23[C@H]4Oc5c(OCCN6CCOCC6)ccc(C[C@@H]1C2C=C[C@@H]4O)c35,-1.2994,G1,1.2034999999999998,108.66580000000008,6.0,1.0,6.0,4.0,1.0,2.0,5.0,6.0,54.400000000000006,171.5711970455323,1.328591223763308
"2,4,6(1h,3h,5h)-pyrimidinetrione, 5-ethyl-5-(1-p",CCC1(N2CCCCC2)C(=O)NC(=O)NC1=O,-2.1562,G1,-0.0129000000000002,60.12740000000003,4.0,2.0,6.0,2.0,0.0,2.0,2.0,2.0,78.51,99.72113420228796,2.300555877244798
diosgenin,C[C@@H]1CC[C@@]2(OC1)O[C@H]3C[C@H]4[C@@H]5CC=C6C[C@@H](O)CC[C@]6(C)[C@H]5CC[C@]4(C)[C@H]3[C@@H]2C,-7.3166,G1,5.713900000000006,117.70080000000006,3.0,1.0,3.0,0.0,0.0,5.0,6.0,6.0,38.69,182.52448025999152,1.2821987670487944
raffinose,OC[C@H]1O[C@H](OC[C@H]2O[C@H](O[C@]3(CO)O[C@H](CO)[C@@H](O)[C@@H]3O)[C@H](O)[C@@H](O)[C@@H]2O)[C@H](O)[C@@H](O)[C@H]1O,-0.3962,G1,-7.571399999999989,101.2748,16.0,11.0,16.0,8.0,0.0,3.0,3.0,3.0,268.67999999999995,192.23007093367468,1.6897643338729131
tripropyl phosphate,CCCO[P](=O)(OCCC)OCCC,-1.5412,G1,3.3743000000000025,56.33550000000005,4.0,0.0,5.0,9.0,0.0,0.0,0.0,0.0,44.760000000000005,86.54903430599812,3.965945885084293
1-chloro-2-methylpropene,CC(C)=CCl,-1.9569,G1,2.1489000000000003,25.28399999999999,0.0,0.0,1.0,0.0,0.0,0.0,0.0,0.0,0.0,37.44774056571679,3.1431973062780685
methallyl alcohol,CC(=C)CO,0.4298,G1,0.5548,21.899799999999995,1.0,1.0,1.0,1.0,0.0,0.0,0.0,0.0,20.23,31.93870809103113,2.847378923087672
2-butanethiol,CCC(C)S,-1.8346,G1,1.7147,28.738999999999987,1.0,1.0,1.0,1.0,0.0,0.0,0.0,0.0,0.0,38.9891440344211,2.5395388613593908
"2,3-dimethyl-1,3-butadiene",CC(=C)C(C)=C,-2.4014,G1,2.1386000000000003,29.627999999999982,0.0,0.0,0.0,1.0,0.0,0.0,0.0,0.0,0.0,39.18475553544408,3.5677034550432034
acetoin,CC(O)C(C)=O,1.055,G1,-0.0438,22.361799999999995,2.0,1.0,2.0,1.0,0.0,0.0,0.0,0.0,37.3,36.78983322325915,3.2575861612334887
abietic acid,CC(C)C1=CC2=CC[C@@H]3[C@](C)(CCC[C@@]3(C)C(O)=O)[C@H]2CC1,-3.7959,G1,5.206200000000004,89.53580000000007,1.0,1.0,2.0,2.0,0.0,1.0,3.0,3.0,37.3,134.23220752864867,1.998747240485634
"3,11-dihydroxy-androstan-17-one",CC12CC[C@H](O)CC1CCC3C4CCC(=O)C4(C)CC(O)C23,-3.5932,G1,2.9299000000000017,84.13060000000006,3.0,2.0,3.0,0.0,0.0,4.0,4.0,4.0,57.53,133.03487407728738,1.689597318472698
"benzeneacetic acid, .alpha.-hydroxy-.alpha.-meth",CC(O)(C(O)=O)c1ccccc1,-0.8949,G1,0.9787,43.64860000000002,2.0,2.0,3.0,2.0,1.0,0.0,0.0,1.0,57.53,70.27621906712257,3.0600131896297444
methyl malonic acid,CC(C(O)=O)C(O)=O,0.7597,G1,-0.2082999999999999,24.435599999999997,2.0,2.0,4.0,2.0,0.0,0.0,0.0,0.0,74.6,45.74558907549892,3.827495625290436
dl-valine,CC(C)C(N)C(O)=O,-0.1971,G5,0.0543,30.44919999999999,2.0,2.0,3.0,2.0,0.0,0.0,0.0,0.0,63.32,48.49466603466847,3.637682547839839
beta-peltatin,COc1cc(cc(OC)c1OC)[C@H]2[C@@H]3[C@H](COC3=O)Cc4c(O)c5OCOc5cc24,-4.5035,G1,2.623900000000001,103.81380000000004,8.0,1.0,8.0,4.0,2.0,1.0,3.0,5.0,92.68,172.7574522382205,1.7455842376920236
fluorescein,Oc1ccc2c(Oc3cc(O)ccc3C24OC(=O)c5ccccc45)c1,-3.8226,G2,3.6658000000000026,88.0271,5.0,2.0,5.0,0.0,3.0,0.0,2.0,5.0,75.99000000000001,142.24089351680936,1.9124059346588247
"6-formyl-2,3-dimethoxybenzoic acid",COc1ccc(C=O)c(C(O)=O)c1OC,-1.9247,G1,1.2145,51.892800000000015,4.0,1.0,5.0,4.0,1.0,0.0,0.0,1.0,72.83,86.2355399883807,3.508120619291252
dioxypyramidon,CN(C)C(=O)C(=O)N(N(C)C(C)=O)c1ccccc1,-0.5345,G1,0.5010999999999997,71.06600000000005,3.0,0.0,6.0,1.0,1.0,0.0,0.0,1.0,60.93000000000001,111.72020125124963,3.174545745222108
"8-quinolinol, 5,7-dibromo-",Oc1c(Br)cc(Br)c2cccnc12,-4.1938,G1,3.4654000000000007,58.80780000000001,2.0,1.0,4.0,0.0,2.0,0.0,0.0,2.0,33.120000000000005,91.8620445956574,2.9668729339241464
hydroquinine,CCC1CN2CCC1CC2C(O)c3ccnc4ccc(OC)cc34,-3.0514,G1,3.3972000000000024,95.12080000000006,4.0,1.0,4.0,4.0,2.0,3.0,3.0,5.0,45.59,143.00302923538916,1.6755568373637346
"1,6-naphthalenedisulfonic acid",O[S](=O)(=O)c1ccc2c(cccc2[S](O)(=O)=O)c1,0.5402,G1,1.3332000000000002,63.57720000000002,4.0,2.0,8.0,2.0,2.0,0.0,0.0,2.0,108.73999999999998,103.37033967131342,2.84556310002879
propranolol,CC(C)NCC(O)COc1cccc2ccccc12,-3.6202,G5,2.577500000000001,78.58850000000005,3.0,2.0,3.0,6.0,2.0,0.0,0.0,2.0,41.49,113.76036150292278,1.977941782307114
tryptazan,NC(Cc1[nH]nc2ccccc12)C(O)=O,-1.4091,G1,0.5172999999999994,55.40890000000001,3.0,3.0,5.0,3.0,2.0,0.0,0.0,2.0,92.0,85.90080251404004,2.323487371389896
allaric acid,O[C@H]([C@H](O)[C@H](O)C(O)=O)[C@@H](O)C(O)=O,-0.3225,G1,-3.4008,39.29879999999999,6.0,6.0,8.0,5.0,0.0,0.0,0.0,0.0,155.52,77.6524083130762,4.4503778597717565
sodium gluconate,[Na+].OCC(O)C(O)C(O)C(O)C([O-])=O,0.4321,G1,-7.823799999999995,36.12,7.0,5.0,8.0,5.0,0.0,0.0,0.0,0.0,141.28,101.9042858357444,0.0
cupric gluconate,[Cu++].OC[C@@H](O)[C@@H](O)[C@H](O)[C@@H](O)C([O-])=O.OC[C@@H](O)[C@@H](O)[C@H](O)[C@@H](O)C([O-])=O,-0.1798,G1,-9.6581,72.24000000000002,14.0,10.0,15.0,10.0,0.0,0.0,0.0,0.0,282.55999999999995,162.20891493838192,-4.114285611122452e-07
thiophene-2-carboxylic acid,OC(=O)c1sccc1,-1.2327,G1,1.4463,31.2783,2.0,1.0,3.0,1.0,1.0,0.0,0.0,1.0,37.3,50.39246435654484,2.9283752374267684
1-methyl-2-isopropylbenzene,CC(C)c1ccccc1C,-3.7606,G1,3.118420000000002,45.26800000000003,0.0,0.0,0.0,1.0,1.0,0.0,0.0,1.0,0.0,62.89117157708339,3.031327898581972
"ethanedione, bis(2-hydroxy-5-nitrophenyl)-",Oc1ccc(cc1C(=O)C(=O)c2cc(ccc2O)[N+]([O-])=O)[N+]([O-])=O,-3.5214,G1,1.9798000000000004,78.1834,8.0,2.0,10.0,5.0,2.0,0.0,0.0,2.0,160.88,132.43584470383334,2.493645208779581
"ethanone, 1-(2,3,4-trihydroxyphenyl)-",CC(=O)c1ccc(O)c(O)c1O,-2.0216,G1,1.006,41.44090000000002,4.0,3.0,4.0,1.0,1.0,0.0,0.0,1.0,77.76,68.70551070492198,3.361225110466304
trimellitic acid,OC(=O)c1ccc(C(O)=O)c(c1)C(O)=O,-1.0003,G3,0.7811999999999999,47.3199,3.0,3.0,6.0,3.0,1.0,0.0,0.0,1.0,111.9,83.39349701940613,3.3963489782409875
"3,4-dinitrobenzoic acid",OC(=O)c1ccc(c(c1)[N+]([O-])=O)[N+]([O-])=O,-1.5005,G1,1.2011999999999998,46.7101,5.0,1.0,8.0,3.0,1.0,0.0,0.0,1.0,123.58,82.05805253113294,3.3963489782409875
n-(aminocarbonyl)-2-(1-methylethyl)4-pentenamide,CC(C)C(CC=C)C(=O)NC(N)=O,-2.7469,G1,1.0296,50.86810000000003,2.0,2.0,4.0,4.0,0.0,0.0,0.0,0.0,72.19,78.18198199152644,4.270512086460438
anthranol,Oc1c2ccccc2cc3ccccc13,-4.7329,G1,3.6986000000000017,63.11880000000003,1.0,1.0,1.0,0.0,3.0,0.0,0.0,3.0,20.23,87.5889659351634,2.5979683595627105
"1,1-diphenylethylene",C=C(c1ccccc1)c2ccccc2,-4.4363,G1,3.7481000000000018,61.02000000000004,0.0,0.0,0.0,2.0,2.0,0.0,0.0,2.0,0.0,84.52877852216996,2.348637604509715
"1,2-cycloheptanedione, dioxime",ONC1=C(CCCCC1)N=O,-1.4249,G1,1.9073,40.82820000000002,4.0,2.0,4.0,2.0,0.0,0.0,1.0,1.0,61.69,65.22633594800823,2.7116520729574307
"2h-1-benzopyran-2-one, 7-methoxy-",COc1ccc2C=CC(=O)Oc2c1,-3.1221,G1,1.8016,49.03600000000002,3.0,0.0,3.0,1.0,2.0,0.0,0.0,2.0,39.44,74.55789391918846,2.746434018430034
"1,2-propanediol, 3-(2-methoxyphenoxy)-, 1-carbam",COc1ccccc1OCC(O)COC(N)=O,-1.5251,G3,0.5302000000000002,60.03120000000003,5.0,2.0,6.0,6.0,1.0,0.0,0.0,1.0,91.01,98.89239592925314,2.410758340400568
"benzoic acid, sodium salt",[Na+].[O-]C(=O)c1ccccc1,0.5864,G1,-2.945899999999998,30.772499999999997,2.0,0.0,3.0,1.0,1.0,0.0,0.0,1.0,40.13,81.1655007088453,8.099998872750162e-07
c.i. basic orange 2,[H+].[Cl-].Nc1ccc(N=Nc2ccccc2)c(N)c1,-4.0947,G1,0.3829000000000001,66.99680000000001,4.0,2.0,5.0,2.0,2.0,0.0,0.0,2.0,76.75999999999999,107.25294818612048,1.4449996808250724e-06
"2,4-d, ethyl ester",CCOC(=O)COc1ccc(Cl)cc1Cl,-3.3503,G1,2.9353000000000016,58.590000000000025,3.0,0.0,5.0,4.0,1.0,0.0,0.0,1.0,35.53,97.88631658990424,2.5396182727640744
"1,3-benzenediol, 4-pentyl-",CCCCCc1ccc(O)cc1O,-1.9548,G1,2.830500000000002,53.00060000000004,2.0,2.0,2.0,4.0,1.0,0.0,0.0,1.0,40.46,78.84458119587202,2.561779868632507