Name,SMILES,Solubility,Group,MolLogP,MolMR,NumHAcceptors,NumHDonors,NumHeteroatoms,NumRotatableBonds,NumAromaticRings,NumSaturatedRings,NumAliphaticRings,RingCount,TPSA,LabuteASA,BalabanJ
"1,3-benzenedicarboxylic acid, 4-methoxy-",COc1ccc(cc1C(O)=O)C(O)=O,-3.1165,G1,1.0916,46.912600000000005,3.0,2.0,5.0,3.0,1.0,0.0,0.0,1.0,83.83000000000001,79.55128639667323,3.274414445393388
"1,2-dimethylcyclohexane (cis)",C[C@H]1CCCC[C@H]1C,-4.2719,G3,2.832600000000001,36.79599999999999,0.0,0.0,0.0,0.0,0.0,1.0,1.0,1.0,0.0,52.28801467507656,2.2794002709583667
"butane, 2,3-dichloro-, (r*,r*)-(.+-.)-",C[C@@H](Cl)[C@@H](C)Cl,-2.3541,G1,2.2410000000000005,30.62999999999999,0.0,0.0,2.0,1.0,0.0,0.0,0.0,0.0,0.0,48.440609824782726,2.993497243478473
"1-naphthalenecarboxylic acid, 8-nitro-",OC(=O)c1cccc2cccc(c12)[N+]([O-])=O,-2.7501,G1,2.446200000000001,57.5617,3.0,1.0,5.0,2.0,2.0,0.0,0.0,2.0,80.44,90.08674134036836,2.924515991348853
4-methyloctane,CCCCC(C)CCC,-6.0474,G1,3.6128000000000022,43.59700000000001,0.0,0.0,0.0,5.0,0.0,0.0,0.0,0.0,0.0,59.658787943002416,2.9548225727898
"naphthalene, 1-methoxy-",COc1cccc2ccccc12,-4.1992,G1,2.8484000000000007,50.50000000000003,1.0,0.0,1.0,1.0,2.0,0.0,0.0,2.0,9.23,71.59155499513565,2.7909670297392646
(+)-fenchol,CC1(C)[C@@H]2CC[C@@](C)(C2)[C@@H]1O,-2.2702,G1,2.1935000000000007,45.23580000000002,1.0,1.0,1.0,0.0,0.0,2.0,2.0,2.0,20.23,68.80630150253658,2.338936599612258
"pentane, 3,3-bis(ethylsulfonyl)-",CCC(CC)([S](=O)(=O)CC)[S](=O)(=O)CC,-2.0625,G1,1.3721,62.23460000000004,4.0,0.0,6.0,6.0,0.0,0.0,0.0,0.0,68.28,92.90958470657556,5.886107682895368
tetrasul,Clc1ccc(Sc2cc(Cl)c(Cl)cc2Cl)cc1,-7.0335,G1,6.451400000000001,77.04700000000001,1.0,0.0,5.0,2.0,2.0,0.0,0.0,2.0,0.0,123.82467225845292,2.2962610484217487
dienochlor,ClC1=C(Cl)C(Cl)(C(=C1Cl)Cl)C2(Cl)C(=C(Cl)C(=C2Cl)Cl)Cl,-7.2784,G1,7.725599999999999,92.096,0.0,0.0,10.0,1.0,0.0,0.0,2.0,2.0,0.0,164.2863178904203,2.8191239714596747
"2-cyclohexen-1-one, oxime, (z)-",O\N=C/1CCCC=C1,-0.9667,G1,1.5567,32.21249999999999,2.0,1.0,2.0,0.0,0.0,0.0,1.0,1.0,32.59,48.512122151633214,2.5621664007011264
octachloronaphthalene,Clc1c(Cl)c(Cl)c2c(Cl)c(Cl)c(Cl)c(Cl)c2c1Cl,-9.703,G1,8.067,84.028,0.0,0.0,8.0,0.0,2.0,0.0,0.0,2.0,0.0,142.53919746628554,3.2161246449441507
m-aminobenzonitrile,Nc1cccc(c1)C#N,-1.1693,G1,1.1404800000000002,35.569400000000016,2.0,1.0,2.0,0.0,1.0,0.0,0.0,1.0,49.81,53.528815612375,3.11920179192052
nonanonitrile,CCCCCCCCC#N,-3.2987,G1,3.260580000000002,43.606000000000016,1.0,0.0,1.0,6.0,0.0,0.0,0.0,0.0,23.79,64.05136762447114,2.723360598747554
2-phenethylisothiocyanate,S=C=NCCc1ccccc1,-3.1714,G1,2.3319,50.03900000000002,2.0,0.0,2.0,3.0,1.0,0.0,0.0,1.0,12.36,71.7803321957518,2.4484927862349912
"2,3,3-trichloro-2-propenoic acid",[O-]C(=O)C(Cl)=C(Cl)Cl,-0.4659,G1,0.6217999999999999,29.592,2.0,0.0,5.0,1.0,0.0,0.0,0.0,0.0,40.13,60.64508675732331,4.226619286896471
"1h-purine, 8-(trifluoromethyl)-",FC(F)(F)c1[nH]c2cncnc2n1,-0.4505,G1,1.3716999999999997,36.6857,3.0,1.0,7.0,0.0,2.0,0.0,0.0,2.0,54.46,69.84272033826132,2.625835905305616
5-phenylpentanoic acid,OC(=O)CCCCc1ccccc1,-2.4657,G3,2.484000000000001,51.63280000000003,1.0,1.0,2.0,5.0,1.0,0.0,0.0,1.0,37.3,78.2118695437198,2.168624668395278
"7h-purine, 2,6-dichloro-7-methyl-",Cn1cnc2nc(Cl)nc(Cl)c12,-1.1522,G1,1.6700999999999997,46.32400000000001,4.0,0.0,6.0,0.0,2.0,0.0,0.0,2.0,43.6,78.16261806984127,2.926885756992558
"phosphoric acid,2-chloro-(2,4-dichlorophenyl)vin",CO[P](=O)(OC)OC(=C\Cl)/c1ccc(Cl)cc1Cl,-3.4066,G1,4.948100000000002,73.00150000000002,4.0,0.0,8.0,5.0,1.0,0.0,0.0,1.0,44.760000000000005,120.0016135885399,3.086993894763407
prothoate,CCO[P](=S)(OCC)SCC(=O)NC(C)C,-2.0575,G1,2.5417000000000005,73.27370000000003,5.0,1.0,7.0,8.0,0.0,0.0,0.0,0.0,47.56,106.76221517923746,4.111101287308404
vamidothion,CNC(=O)CCSCCS[P](=O)(OC)OC,0.5416,G1,1.9898,70.09120000000004,6.0,1.0,8.0,9.0,0.0,0.0,0.0,0.0,64.63000000000001,104.69006566146822,3.465579656243774
"1-naphthalenecarboxylic acid, 2-hydroxy-",OC(=O)c1c(O)ccc2ccccc12,-3.1284,G1,2.2436,52.57210000000002,2.0,2.0,3.0,1.0,2.0,0.0,0.0,2.0,57.53,80.22799937006457,2.8951601769882984
diallate,CC(C)N(C(C)C)C(=O)SC\C(Cl)=C\Cl,-4.2856,G1,4.277400000000004,69.75400000000003,2.0,0.0,5.0,4.0,0.0,0.0,0.0,0.0,20.31,105.98512527459047,4.27920995877855
triallate,CC(C)N(C(C)C)C(=O)SCC(Cl)=C(Cl)Cl,-4.8818,G1,4.843900000000003,74.55000000000003,2.0,0.0,6.0,4.0,0.0,0.0,0.0,0.0,20.31,116.28839150147216,4.395102108176326
"trans-cyclohexane-1,2-dicarboxylic acid",OC(=O)C1CCCCC1C(O)=O,-1.935,G1,0.9620000000000002,40.71960000000001,2.0,2.0,4.0,2.0,0.0,1.0,1.0,1.0,74.6,70.19952637955613,2.665364343758954
"2h-purin-2-one, 1,3-dihydro-",O=C1Nc2nc[nH]c2C=N1,-1.7136,G1,-0.3538,34.50940000000001,3.0,2.0,5.0,0.0,2.0,0.0,0.0,2.0,74.43,55.14269411512976,2.990320309898347
"1h-purine-2,6,8(3h)-trione, 7,9-dihydro-1,3,7,9-",CN1C(=O)N(C)C2=C(N(C)C(=O)N2C)C1=O,-0.9527,G1,-1.725599999999999,58.64200000000002,7.0,0.0,7.0,0.0,2.0,0.0,0.0,2.0,70.93,89.76539271918503,3.363889360790429
phosalone,CCO[P](=S)(OCC)SCN1C(=O)Oc2cc(Cl)ccc12,-5.0813,G3,4.236100000000003,90.61200000000002,7.0,0.0,9.0,7.0,2.0,0.0,0.0,2.0,53.6,136.01855823434258,2.2526661246596325
flurenol-butyl,CCCCOC(=O)C1(O)c2ccccc2c3ccccc13,-3.8885,G1,3.2462000000000018,80.74380000000004,3.0,1.0,3.0,4.0,2.0,0.0,1.0,3.0,46.53,123.7416199401581,2.067770105248944
cdea,CCN(CC)C(=O)CCl,-0.243,G1,1.0936,38.648,1.0,0.0,3.0,3.0,0.0,0.0,0.0,0.0,20.31,60.7885835969414,3.6437564476124793
propyl benzoate,CCCOC(=O)c1ccccc1,-2.6701,G1,2.2534,47.01550000000003,2.0,0.0,2.0,3.0,1.0,0.0,0.0,1.0,26.3,72.16623890663405,2.539556056342092
"benzenemethanol, 5-bromo-2-hydroxy-",OCc1cc(Br)ccc1O,-0.2072,G1,1.647,41.72960000000002,2.0,2.0,3.0,1.0,1.0,0.0,0.0,1.0,40.46,67.25236034392695,3.090683646458197
"butanedioic acid, (1-methylethyl)-",CC(C)C(CC(O)=O)C(O)=O,-0.4073,G1,0.8179000000000001,38.21659999999999,2.0,2.0,4.0,4.0,0.0,0.0,0.0,0.0,74.6,64.84041541868874,4.11529460833615
"n-acetyl-l-phenylalanine, ethyl ester",CCOC(=O)[C@H](Cc1ccccc1)NC(C)=O,-1.7557,G1,1.2969,64.38370000000003,3.0,1.0,4.0,5.0,1.0,0.0,0.0,1.0,55.4,100.97244953347568,2.695351301044562
"1,2,3,5-tetrafluorobenzene",Fc1cc(F)c(F)c(F)c1,-2.3057,G1,2.2430000000000003,26.274,0.0,0.0,4.0,0.0,1.0,0.0,0.0,1.0,0.0,54.09354473120191,3.310532874722407
"2,2-dimethyl-1-pentanol",CCCC(C)(C)CO,-1.4391,G4,1.805,35.77479999999999,1.0,1.0,1.0,3.0,0.0,0.0,0.0,0.0,20.23,51.723137466405205,3.373381552563661
"3,4-(methylenedioxy)cinnamic acid",OC(=O)\C=C/c1ccc2OCOc2c1,-3.8523,G1,1.5131,49.23480000000002,3.0,1.0,4.0,2.0,1.0,0.0,1.0,2.0,55.760000000000005,80.37858370262344,2.24526647484614
10-methyl-benz(a)anthracene,Cc1ccc2cc3ccc4ccccc4c3cc2c1,-6.644,G1,5.454620000000004,83.69700000000003,0.0,0.0,0.0,0.0,4.0,0.0,0.0,4.0,0.0,111.8413388290992,2.232112909661565
9-methylbenz(a)anthracene,Cc1ccc2cc3c(ccc4ccccc34)cc2c1,-6.8162,G1,5.454620000000004,83.69700000000003,0.0,0.0,0.0,0.0,4.0,0.0,0.0,4.0,0.0,111.8413388290992,2.221063067428523
6-methylbenzo(a)pyrene,Cc1c2ccccc2c3ccc4cccc5ccc1c3c45,-8.5234,G1,6.045620000000003,92.38900000000004,0.0,0.0,0.0,0.0,5.0,0.0,0.0,5.0,0.0,122.50202824096998,2.2577078741048795
2(3h)-benzoxazolethione,S=C1Nc2ccccc2O1,-2.1795,G1,2.4903900000000005,41.398700000000005,2.0,1.0,3.0,0.0,2.0,0.0,0.0,2.0,28.93,62.4858251434604,3.007619546803024
mirex,ClC1(Cl)C2(Cl)C3(Cl)C4(Cl)C(Cl)(Cl)C5(Cl)C3(Cl)C1(Cl)C5(Cl)C24Cl,-6.8074,G1,6.222999999999999,97.54599999999998,0.0,0.0,12.0,0.0,0.0,6.0,6.0,6.0,0.0,184.63376901233292,2.077829675923021
1-chloro-3-isothiocyanato-benzene,Clc1cccc(c1)N=C=S,-3.9507,G1,3.074300000000001,46.13800000000001,2.0,0.0,3.0,1.0,1.0,0.0,0.0,1.0,12.36,69.35371419384025,3.061972168711611
"1,8-nonadiyne",C#CCCCCCC#C,-2.983,G1,2.2033000000000005,40.75100000000001,0.0,0.0,0.0,4.0,0.0,0.0,0.0,0.0,0.0,57.65723872672096,2.787167523586374
n-oxidenicotinic acid,OC(=O)C1=C[NH++]([O-])[CH-]C=C1,-1.2983,G1,-0.9308099999999996,33.488499999999995,2.0,1.0,4.0,1.0,0.0,0.0,1.0,1.0,67.76,57.64278615603198,2.7589599781358083
"phosphonic acid, ethyl-, dibutyl ester",CCCCO[P](=O)(CC)OCCCC,-1.5687,G1,3.8328000000000033,59.86750000000005,3.0,0.0,4.0,9.0,0.0,0.0,0.0,0.0,35.53,87.71376093276064,3.737825503323074
dibutyl methylphosphonate,CCCCO[P](C)(=O)OCCCC,-1.4155,G1,3.442700000000002,55.250500000000045,3.0,0.0,4.0,8.0,0.0,0.0,0.0,0.0,35.53,81.34881881836402,3.4851076896510653
"phenol, 2-phenoxy-",Oc1ccccc1Oc2ccccc2,-3.2286,G1,3.1845000000000017,54.622800000000026,2.0,1.0,2.0,2.0,2.0,0.0,0.0,2.0,29.46,82.39627630726389,2.2369588843757167
tri-sec-butanolamine,CCC(O)CN(CC(O)CC)CC(O)CC,-0.5229,G1,0.6010999999999993,65.33340000000005,4.0,3.0,4.0,9.0,0.0,0.0,0.0,0.0,63.93000000000001,98.89614921298364,4.145433411615663
12-methylbenz(a)anthracene,Cc1c2ccccc2cc3ccc4ccccc4c13,-6.5648,G1,5.454620000000004,83.69700000000005,0.0,0.0,0.0,0.0,4.0,0.0,0.0,4.0,0.0,111.8413388290992,2.334130511633286
captafol,ClC(Cl)C(Cl)(Cl)SN1C(=O)C2CC=CCC2C1=O,-5.3968,G1,3.520900000000001,74.72900000000001,3.0,0.0,8.0,3.0,0.0,1.0,2.0,2.0,37.38,128.87689503196762,2.1604455885783054
glycidyl n-butyl ether,CCCCOCC1CO1,-0.8135,G1,1.2019,35.467,2.0,0.0,2.0,5.0,0.0,1.0,1.0,1.0,21.76,56.15016301969372,1.7060432961664127
"4-methyl-2,6-dichlorophenol",Cc1cc(Cl)c(O)c(Cl)c1,-1.4202,G1,3.0074200000000006,42.86380000000002,1.0,1.0,3.0,0.0,1.0,0.0,0.0,1.0,20.23,69.19711143985293,3.310532874722407
"pteridine, 2-methyl-",Cc1ncc2nccnc2n1,-0.1191,G5,0.7282199999999999,39.865000000000016,4.0,0.0,4.0,0.0,2.0,0.0,0.0,2.0,51.56,63.35660168941482,2.828901215620696
"pteridine, 4-methyl-",Cc1ncnc2nccnc12,-0.4658,G5,0.7282199999999999,39.86500000000001,4.0,0.0,4.0,0.0,2.0,0.0,0.0,2.0,51.56,63.356601689414816,2.9131611636048604
oxythioquinox,Cc1ccc2nc3SC(=O)Sc3nc2c1,-5.3698,G1,2.5746200000000004,63.805000000000014,5.0,0.0,5.0,0.0,3.0,0.0,0.0,3.0,42.85,93.05170646005595,2.5145236538247846
dodine,CCCCCCCCCCCCN=C(N)N.CC(O)=O,-2.6592,G1,3.2716000000000003,85.83060000000005,2.0,3.0,5.0,11.0,0.0,0.0,0.0,0.0,101.7,123.38513151503663,0.0
o-methoxybenzamide,COc1ccccc1C(N)=O,-1.7815,G1,0.7941,41.51190000000001,2.0,1.0,3.0,2.0,1.0,0.0,0.0,1.0,52.32,64.77624537485353,3.121219318886157
glyphosine,OC(=O)CN(C[P](O)(O)=O)C[P](O)(O)=O,-0.0256,G3,-1.3566000000000005,48.16400000000002,4.0,5.0,11.0,6.0,0.0,0.0,0.0,0.0,155.6,84.65248273494227,4.525410345249786
"ethanone, 2-(4-aminophenyl)-1-phenyl-",Nc1ccc(CC(=O)c2ccccc2)cc1,-1.805,G1,2.6942000000000013,65.33090000000003,2.0,1.0,2.0,3.0,2.0,0.0,0.0,2.0,43.09,94.71979435141073,2.1105163490120478
"4,4'-dichlorodiphenyl ether",Clc1ccc(Oc2ccc(Cl)cc2)cc1,-4.7999,G1,4.785700000000003,62.97800000000003,1.0,0.0,3.0,2.0,2.0,0.0,0.0,2.0,9.23,98.20857500883122,2.1467113756182017
terpin hydrate (cis-form),O.CC(C)(O)C1CCC(C)(O)CC1,-1.6774,G1,0.8737999999999999,52.49340000000004,2.0,2.0,3.0,1.0,0.0,1.0,1.0,1.0,71.96000000000001,80.0871198366762,1.4399995716001305e-06
"1,4,5,8-tetraaminoanthraquinone",Nc1ccc(N)c2C(=O)c3c(N)ccc(N)c3C(=O)c12,-6.9515,G1,0.7908000000000002,77.39859999999999,6.0,4.0,6.0,0.0,2.0,0.0,1.0,3.0,138.22,113.89515738896338,2.4618026573276635
medinoterb acetate,CC(=O)Oc1c(cc(c(C)c1C(C)(C)C)[N+]([O-])=O)[N+]([O-])=O,-4.4717,G1,3.034220000000002,74.49680000000002,6.0,0.0,8.0,3.0,1.0,0.0,0.0,1.0,112.58,120.56701669482344,3.887186967012368
"glycine, n-formyl-",OC(=O)CNC=O,0.2672,G1,-1.183,21.7025,2.0,2.0,4.0,3.0,0.0,0.0,0.0,0.0,66.4,40.13627539251435,2.9670528832697767
"ethanone, 1-(4-hydroxyphenyl)-2-phenyl-",Oc1ccc(cc1)C(=O)Cc2ccccc2,-1.5008,G1,2.8176000000000005,62.58330000000004,2.0,1.0,2.0,3.0,2.0,0.0,0.0,2.0,37.3,94.174137406594,2.119180990864876
disulfoton sulfone,CCO[P](=S)(OCC)SCC[S](=O)(=O)CC,-2.5403,G1,2.4518000000000004,74.32280000000004,6.0,0.0,8.0,9.0,0.0,0.0,0.0,0.0,52.6,107.3112871629756,4.1841457559818025
"benz[a]anthracene, 5-fluoro-7-methyl-",Cc1c2ccccc2cc3c1cc(F)c4ccccc34,-7.31,G1,5.593720000000003,83.65500000000003,0.0,0.0,1.0,0.0,4.0,0.0,0.0,4.0,0.0,116.00687423202544,2.340399397279029
1-methylbenz(a)anthracene,Cc1cccc2ccc3cc4ccccc4cc3c12,-6.644,G1,5.454620000000004,83.69700000000005,0.0,0.0,0.0,0.0,4.0,0.0,0.0,4.0,0.0,111.8413388290992,2.288164726178113
2-nitro-5-chlorobenzoic acid,OC(=O)c1cc(Cl)ccc1[N+]([O-])=O,-1.319,G1,1.9464000000000004,45.0657,3.0,1.0,6.0,2.0,1.0,0.0,0.0,1.0,80.44,77.70834303551482,3.3486590713152182
dibutyl phenyl phosphate,CCCCO[P](=O)(OCCCC)Oc1ccccc1,-3.4746,G1,4.806900000000004,76.39650000000006,4.0,0.0,5.0,10.0,1.0,0.0,0.0,1.0,44.760000000000005,115.24118639766556,2.5914128917982358
chlorflurecol methyl,COC(=O)C1(O)c2ccccc2c3ccc(Cl)cc13,-4.1836,G1,2.729300000000001,71.90280000000003,3.0,1.0,4.0,1.0,2.0,0.0,1.0,3.0,46.53,114.95005982384993,2.3770639184619307
formothion,CO[P](=S)(OC)SCC(=O)N(C)C=O,-1.9954,G1,0.8516999999999999,59.59500000000002,6.0,0.0,8.0,6.0,0.0,0.0,0.0,0.0,55.84,92.03888242268675,4.109305020933433
"benz[a]anthracene, 6-fluoro-7-methyl-",Cc1c2ccccc2cc3c4ccccc4cc(F)c13,-7.31,G1,5.593720000000003,83.65500000000004,0.0,0.0,1.0,0.0,4.0,0.0,0.0,4.0,0.0,116.00687423202544,2.358455446995676
benz(a)anthracene-7-methyl,Cc1c2ccccc2cc3c4ccccc4ccc13,-7.343,G3,5.454620000000004,83.69700000000005,0.0,0.0,0.0,0.0,4.0,0.0,0.0,4.0,0.0,111.8413388290992,2.3181930833020647
"nonanoic acid, 9-oxo-",OC(=O)CCCCCCCC=O,-0.9574,G1,2.0006,46.01880000000003,2.0,1.0,3.0,8.0,0.0,0.0,0.0,0.0,54.37,72.77606589528597,2.904411038051829
"acetamide, 2,2-dichloro-n-phenyl-",ClC(Cl)C(=O)Nc1ccccc1,-3.3555,G1,2.4288,50.565700000000014,1.0,1.0,4.0,2.0,1.0,0.0,0.0,1.0,29.1,80.47920408570535,2.5897829796017806
"1,3-dioxolane, 2-ethyl-",CCC1OCCO1,0.2919,G1,0.7693,25.982999999999983,2.0,0.0,2.0,1.0,0.0,1.0,1.0,1.0,18.46,43.42027879090051,2.1399633186493645
"ethanediimidamide, n,n''-dihydroxy-",N\C(NO)=C(/N)N=O,-0.7773,G1,-1.2244000000000002,26.118000000000013,6.0,4.0,6.0,2.0,0.0,0.0,0.0,0.0,113.73,45.08723792357984,4.027243339066914
3-methyl-4-nitrophenol,Cc1cc(O)ccc1[N+]([O-])=O,-2.1103,G1,1.60882,39.49820000000002,3.0,1.0,4.0,1.0,1.0,0.0,0.0,1.0,63.37,63.243554708589386,3.1960696621259204
c.i. disperse orange 1,[O-][N+](=O)c1ccc(cc1)N=Nc2ccc(Nc3ccccc3)cc2,-7.5229,G1,5.753800000000004,93.4391,5.0,1.0,6.0,5.0,3.0,0.0,0.0,3.0,79.89,138.195207282222,1.6590704482436824
"guanidine, 2-benzothiazolyl-",NC(N)=Nc1sc2ccccc2n1,-2.4412,G1,1.2012,55.0898,3.0,2.0,5.0,1.0,2.0,0.0,0.0,2.0,77.29,78.91312489687233,2.559795429325616
2-hexenedioic acid,OC(=O)CCC=CC(O)=O,-1.2045,G1,0.4920000000000001,33.64559999999999,2.0,2.0,4.0,4.0,0.0,0.0,0.0,0.0,74.6,57.785870272107886,3.3598601449703684
phorate sulfoxide,CCO[P](=S)(OCC)SC[S](=O)CC,-1.5384,G1,2.7432000000000016,68.67840000000004,5.0,0.0,7.0,8.0,0.0,0.0,0.0,0.0,35.53,97.69520087036834,4.083350427266094
phorate sulfone,CCO[P](=S)(OCC)SC[S](=O)(=O)CC,-2.5309,G1,2.409300000000001,69.45580000000004,6.0,0.0,8.0,8.0,0.0,0.0,0.0,0.0,52.6,100.946345048579,4.371293824985292
etridazole,CCOc1snc(n1)C(Cl)(Cl)Cl,-3.3254,G1,2.7635000000000014,50.31500000000001,4.0,0.0,7.0,2.0,1.0,0.0,0.0,1.0,35.010000000000005,88.7703225940886,2.7727148501325187
mecarbam,CCOC(=O)N(C)C(=O)CS[P](=S)(OCC)OCC,-2.5177,G1,2.632000000000001,79.78700000000005,7.0,0.0,9.0,8.0,0.0,0.0,0.0,0.0,65.07000000000001,122.61219610978006,4.397208956208479
fenthoate,CCOC(=O)C(S[P](=S)(OC)OC)c1ccccc1,-4.4643,G1,3.5413000000000023,81.71000000000005,6.0,0.0,7.0,7.0,1.0,0.0,0.0,1.0,44.760000000000005,122.28816608801054,3.001299279548144
chipcote,C[Hg]C#N,-0.0821,G1,0.59808,11.477,1.0,0.0,2.0,0.0,0.0,0.0,0.0,0.0,23.79,38.05157195610322,2.4330963097956344
"3,5-pyridinedicarboxylic acid, 2,6-dimethyl-",Cc1nc(C)c(cc1C(O)=O)C(O)=O,-2.809,G1,1.09484,47.62960000000001,3.0,2.0,5.0,2.0,1.0,0.0,0.0,1.0,87.49000000000001,80.02233126250947,3.4178886149330863
p-acetoxyacetanilide,CC(=O)Nc1ccc(OC(C)=O)cc1,-1.9076,G1,1.5702999999999998,52.054700000000025,3.0,1.0,4.0,2.0,1.0,0.0,0.0,1.0,55.4,81.87762319028586,2.679983362198753
"2,4(1h,3h)-pteridinedione, 1,3,6,7-tetramethyl-",CN1C(=O)N(C)c2nc(C)c(C)nc2C1=O,-1.3429,G1,-0.3559600000000003,59.494000000000014,6.0,0.0,6.0,0.0,2.0,0.0,0.0,2.0,69.78,91.19441520588282,3.15517851443626
"butanoic acid, 4-nitrophenyl ester",CCCC(=O)Oc1ccc(cc1)[N+]([O-])=O,-3.9404,G1,2.3003,53.63940000000002,4.0,0.0,5.0,4.0,1.0,0.0,0.0,1.0,69.44,86.81921462913384,2.6416397623371424
"1,2-naphthalenedione, 1-oxime",Oc1ccc2ccccc2c1N=O,-2.9374,G3,2.9433000000000007,51.06780000000001,3.0,1.0,3.0,1.0,2.0,0.0,0.0,2.0,49.66,74.60203338765866,2.9117844920054865
"4,4'-dicyano-4,4'azo-di-valeric acid",C[C@@](CCC([O-])=O)(N=N[C@](C)(CCC([O-])=O)C#N)C#N,-2.0083,G3,-0.936639999999999,61.37400000000003,8.0,0.0,8.0,8.0,0.0,0.0,0.0,0.0,152.55999999999997,115.89706319809832,4.92042108277526
azinphos ethyl,CCO[P](=S)(OCC)SCN1N=Nc2ccccc2C1=O,-4.5171,G1,2.779700000000001,88.92600000000004,8.0,0.0,9.0,7.0,2.0,0.0,0.0,2.0,66.24000000000001,131.29716584208654,2.217786045580062
6-aminochrysene,Nc1cc2c3ccccc3ccc2c4ccccc14,-6.1958,G1,4.728400000000002,83.37240000000004,1.0,1.0,1.0,0.0,4.0,0.0,0.0,4.0,26.02,110.8162874117153,2.3371227357502997
"3,5-bis(tert-butyl)phenol methylcarbamate",CNC(=O)Oc1cc(cc(c1)C(C)(C)C)C(C)(C)C,-4.2445,G1,3.999800000000003,78.92570000000005,2.0,1.0,3.0,1.0,1.0,0.0,0.0,1.0,38.33,115.90575377662172,3.286723187669047
"1,4-dichloro-2,5-dimethoxybenzene",COc1cc(Cl)c(OC)cc1Cl,-4.413,G1,3.010600000000002,49.56600000000002,2.0,0.0,4.0,2.0,1.0,0.0,0.0,1.0,18.46,80.99491026106729,3.164874105084725
".beta.-alanine, n-methyl-",CNCCC(O)=O,-0.0543,G1,-0.3194999999999999,26.17949999999999,2.0,2.0,3.0,3.0,0.0,0.0,0.0,0.0,49.33,42.33969540686719,2.8219389370591843
2-chlorodiphenyl ether,Clc1ccccc1Oc2ccccc2,-4.7796,G1,4.1323000000000025,57.96800000000003,1.0,0.0,2.0,2.0,2.0,0.0,0.0,2.0,9.23,87.90530878194956,2.2369588843757167
"phosphoric acid, butyl diethyl ester",CCCCO[P](=O)(OCC)OCC,-1.1466,G1,2.9842000000000013,51.71850000000004,4.0,0.0,5.0,8.0,0.0,0.0,0.0,0.0,44.760000000000005,80.18409219160154,3.845934399891642
"leucine, ethyl ester",CCOC(=O)[C@@H](N)CC(C)C,-0.5606,G1,0.9228999999999996,44.06340000000001,3.0,1.0,3.0,4.0,0.0,0.0,0.0,0.0,52.32,67.90880385516914,3.636832773235095
"n,n'-bis-phenylacetyl-cystine",OC(=O)C(CSSCC(NC(=O)Cc1ccccc1)C(O)=O)NC(=O)Cc2ccccc2,-1.833,G1,1.992,124.34100000000004,6.0,4.0,10.0,13.0,2.0,0.0,0.0,2.0,132.8,193.1183808783904,1.7642175732961465
diquat,C1C[n+]2ccccc2c3cccc[n+]13,-3.425,G1,0.9422,52.26800000000003,0.0,0.0,2.0,0.0,2.0,0.0,1.0,3.0,7.76,83.07178933590865,2.287583078364964
"4,5-dichloroveratrole",COc1cc(Cl)c(Cl)cc1OC,-3.4588,G1,3.010600000000002,49.56600000000002,2.0,0.0,4.0,2.0,1.0,0.0,0.0,1.0,18.46,80.99491026106728,3.190438801224836
endothion,COC1=COC(=CC1=O)CS[P](=O)(OC)OC,0.7286,G1,2.2825,64.44950000000003,7.0,0.0,8.0,6.0,1.0,0.0,0.0,1.0,74.97,102.53278125448846,2.737375681509143
"phosphonic acid, (1-hydroxyethylidene)bis-",CC(O)([P](O)(O)=O)[P](O)(O)=O,0.5249,G1,-0.9922000000000002,34.712,3.0,5.0,9.0,2.0,0.0,0.0,0.0,0.0,135.29,62.001242735901926,5.079498628795793
"trans-2,5-dimethylpiperazine",C[C@H]1C[NH2+][C@H](C)C[NH2+]1,0.4864,G1,-2.096199999999998,32.50879999999999,0.0,2.0,2.0,0.0,0.0,1.0,1.0,1.0,33.22,50.65785481349944,2.1923771580194718
4-oxo-pent-2-enoic acid,CC(=O)C=CC(O)=O,-0.2332,G1,0.2161999999999999,27.45679999999999,2.0,1.0,3.0,2.0,0.0,0.0,0.0,0.0,54.37,46.62669440551526,3.668626461933803
"undecanoic acid, 11-bromo-",OC(=O)CCCCCCCCCCBr,-3.699,G1,3.976800000000003,62.98280000000005,1.0,1.0,3.0,10.0,0.0,0.0,0.0,0.0,37.3,95.2119756296768,2.884064614706359
"butanoic acid, 2-amino-, (.+-.)-",CCC(N)C(O)=O,0.2868,G5,-0.1916999999999999,25.9022,2.0,2.0,3.0,2.0,0.0,0.0,0.0,0.0,63.32,42.12972392027186,3.34341705895396
"1-chloro-1,2,2,2-tetrafluoroethane",FC(Cl)C(F)(F)F,-1.959,G1,2.0831,16.804000000000002,0.0,0.0,5.0,0.0,0.0,0.0,0.0,0.0,0.0,42.069600980812766,3.541196965079901
m-chloroanisole,COc1cccc(Cl)c1,-2.783,G1,2.3486,38.00400000000001,1.0,0.0,2.0,1.0,1.0,0.0,0.0,1.0,9.23,59.213156690282126,2.9368661023365914
chlorpyrifos,CCO[P](=S)(OCC)Oc1nc(Cl)c(Cl)cc1Cl,-5.4956,G5,4.718100000000002,77.43200000000002,5.0,0.0,9.0,6.0,1.0,0.0,0.0,1.0,40.58,125.74118203040852,3.006125183376143