Name,SMILES,Solubility,Group,MolLogP,MolMR,NumHAcceptors,NumHDonors,NumHeteroatoms,NumRotatableBonds,NumAromaticRings,NumSaturatedRings,NumAliphaticRings,RingCount,TPSA,LabuteASA,BalabanJ
4-(4-hydroxyphenyl)phenol,Oc1ccc(cc1)c2ccc(O)cc2,-3.7423730992,G1,2.764800000000001,55.20760000000003,2.0,2.0,2.0,1.0,2.0,0.0,0.0,2.0,40.46,82.07696482995303,2.396509039726096
"1,4-bis[(E)-prop-1-enoxy]cyclohexane 1,4-di(prop-1-enoxy)cyclohexane",C\C=C\OC1CCC(CC1)O\C=C\C,-3.9037320907,G3,3.3980000000000024,57.84200000000004,2.0,0.0,2.0,4.0,0.0,1.0,1.0,1.0,18.46,86.59566752730825,2.17000731921284
"1,7-dioxacycloheptadecan-8-one",O=C1CCCCCCCCCOCCCCCO1,-3.8838494997,G1,3.850900000000003,72.56500000000005,3.0,0.0,3.0,0.0,0.0,1.0,1.0,1.0,35.53,111.2312220349104,2.113694135690367
9-Methylnonadecane,CCCCCCCCCCC(C)CCCCCCCC,-6.4511045339,G1,7.903900000000008,94.38400000000009,0.0,0.0,0.0,16.0,0.0,0.0,0.0,0.0,0.0,129.67315120136513,3.1014700581726964
(E)-(carbamoylimino)urea; (Z)-(carbamoylimino)urea,NC(=O)N=NC(N)=O,-3.5462434596,G1,-0.4039999999999998,24.022800000000007,2.0,2.0,6.0,0.0,0.0,0.0,0.0,0.0,110.9,44.5537965808282,3.668626461933803
"2,4-di-tert-butylphenol",CC(C)(C)c1ccc(O)c(c1)C(C)(C)C,-3.7960463334,G3,3.987200000000003,65.50680000000006,1.0,1.0,1.0,0.0,1.0,0.0,0.0,1.0,20.23,93.14517378686584,3.2993579461545743
3-(4-tert-butylphenyl)-2-methylpropanal,CC(Cc1ccc(cc1)C(C)(C)C)C=O,-3.7917820609,G3,3.361600000000002,64.07400000000004,1.0,0.0,1.0,3.0,1.0,0.0,0.0,1.0,17.07,92.5124621347136,2.768132115506002
3-amino-4-methoxy-N-phenylbenzamide,COc1ccc(cc1N)C(=O)Nc2ccccc2,-3.86580004,G1,2.529700000000001,71.80160000000002,3.0,2.0,4.0,3.0,2.0,0.0,0.0,2.0,64.35,105.38320176452562,2.1681398584185176
methanidylidyneoxidanium,[C-]#[O+],-2.9287991689,G1,-0.03751,3.9295,0.0,0.0,1.0,0.0,0.0,0.0,0.0,0.0,19.9,12.61969834340442,3.0
2-chloro-2-methylbutane,CCC(C)(C)Cl,-2.5105450102,G2,2.4138,30.222999999999985,0.0,0.0,1.0,1.0,0.0,0.0,0.0,0.0,0.0,44.50228571229765,3.168489872670569
"2,2',2'',2'''-(ethane-1,2-diyldinitrilo)tetraacetonitrile",N#CCN(CCN(CC#N)CC#N)CC#N,-2.8204043469,G3,-0.31528,55.33200000000003,6.0,0.0,6.0,7.0,0.0,0.0,0.0,0.0,101.64,95.11371612368062,4.065699413638532
tert-butyl benzenecarboperoxoate,CC(C)(C)OOC(=O)c1ccccc1,-2.7764329492,G1,2.573500000000001,52.69550000000004,3.0,0.0,3.0,2.0,1.0,0.0,0.0,1.0,35.53,83.57402156627585,2.523434610495391
"1,1-difluoroethane",CC(F)F,-1.3147228436,G3,1.2714,11.678000000000004,0.0,0.0,2.0,0.0,0.0,0.0,0.0,0.0,0.0,23.435263948078628,2.3237900077244498
"3,7-dimethyloctan-3-ol",CCC(C)(O)CCCC(C)C,-2.6942897822000003,G3,2.973700000000002,49.60380000000003,1.0,1.0,1.0,5.0,0.0,0.0,0.0,0.0,20.23,70.81796380959503,3.376278757117517
"5-methoxy-1,3-dihydro-2H-benzimidazole-2-thione",COc1ccc2NC(=S)Nc2c1,-2.7506819237,G1,2.23409,50.03540000000002,2.0,2.0,4.0,1.0,2.0,0.0,0.0,2.0,40.81,74.37914364430135,2.742606371299562
bromo(trifluoro)methane,FC(F)(F)Br,-2.6677709688,G1,1.9011,14.982,0.0,0.0,4.0,0.0,0.0,0.0,0.0,0.0,0.0,35.10340484224961,3.0237157840738176
2-({[6-(oxiran-2-ylmethoxy)naphthalen-1-yl]oxy}methyl)oxirane,C1OC1COc2ccc3c(OCC4CO4)cccc3c2,-3.9191737976,G1,2.3950000000000005,74.41800000000003,4.0,0.0,4.0,6.0,2.0,2.0,2.0,4.0,43.52,116.7452389485809,1.536939108918311
"(2E)-3,7-dimethylocta-2,6-dien-1-yl formate",CC(C)=CCC\C(C)=C\COC=O,-3.7461507617,G1,2.852100000000001,54.43800000000004,2.0,0.0,2.0,6.0,0.0,0.0,0.0,0.0,26.3,80.28453343697775,3.601299450598324
"(3E)-4-(2,5,6,6-tetramethylcyclohex-2-en-1-yl)but-3-en-2-one",C[C@@H]1CC=C(C)[C@H](\C=C\C(C)=O)C1(C)C,-3.8026769123,G1,3.760100000000003,64.63000000000004,1.0,0.0,1.0,2.0,0.0,0.0,1.0,1.0,17.07,93.25998339713148,2.963503950041813
cyclohexylmethyl-dimethoxysilane,CO[SiH](CC1CCCCC1)OC,-3.0959725365,G1,2.08,52.54900000000004,2.0,0.0,3.0,4.0,0.0,1.0,1.0,1.0,18.46,77.10436617048376,2.179610751888058
5-amino-2-[(E)-2-(4-amino-2-sulfophenyl)ethenyl]benzene-1-sulfonic acid,Nc1ccc(\C=C\c2ccc(N)cc2[S](O)(=O)=O)c(c1)[S](O)(=O)=O,-4.0635303796,G4,1.5148000000000006,90.26600000000002,6.0,4.0,10.0,4.0,2.0,0.0,0.0,2.0,160.78,138.46583193627663,2.586773510100684
"zinc 4-methyl-2-thioxo-2,3-dihydrobenzimidazol-1-ide 7-methyl-2-thioxo-2,3-dihydrobenzimidazol-1-ide",[Zn++].Cc1cccc2[N-]C(=S)Nc12.Cc3cccc4NC(=S)[N-]c34,-4.0879587895,G1,4.323520000000002,94.3794,2.0,2.0,7.0,0.0,4.0,0.0,0.0,4.0,59.78,156.04604711225008,1.5999999783240746e-07
3-[hydroxy(phenyl)phosphoryl]propanoic acid,OC(=O)CC[P](O)(=O)c1ccccc1,-0.8283051545000001,G4,1.057,53.021100000000025,2.0,2.0,5.0,4.0,1.0,0.0,0.0,1.0,74.6,81.6524892253432,2.759325797670845
(phenylmethanesulfinylmethyl)benzene,O=[S](Cc1ccccc1)Cc2ccccc2,-2.8588087212,G1,3.1355000000000013,68.43440000000004,1.0,0.0,2.0,4.0,2.0,0.0,0.0,2.0,17.07,98.59263575793015,1.9521941477943936
2-[(E)-2-(1-cyano-1-methylethyl)diazen-1-yl]-2-methylpropanenitrile,CC(C)(N=NC(C)(C)C#N)C#N,-2.7132509977,G3,2.04296,44.24000000000002,4.0,0.0,4.0,2.0,0.0,0.0,0.0,0.0,72.3,72.52578303603232,4.502454436161649
2-methylbutyl acrylate,CCC(C)COC(=O)C=C,-2.6532064055,G1,1.7617,40.611,2.0,0.0,2.0,4.0,0.0,0.0,0.0,0.0,26.3,61.87931012597218,3.3441326792281494
"2-chloro-1,3-benzothiazole",Clc1sc2ccccc2n1,-2.7325883752,G1,2.949700000000001,44.63000000000001,2.0,0.0,3.0,0.0,2.0,0.0,0.0,2.0,12.89,67.27634512947185,2.876510166944625
"2-aminoethan-1-ol; 6-cyclohexyl-1-hydroxy-4-methyl-1,2-dihydropyridin-2-one",CC1=CC(=O)N(O)C(=C1)C2CCCCC2.NCCO,-0.9331685906,G1,1.37912,74.58970000000004,5.0,3.0,5.0,2.0,1.0,1.0,1.0,2.0,88.48,113.18942041753478,3.989999644296944e-07
"4,7-dichloroquinoline",Clc1ccc2c(Cl)ccnc2c1,-2.8026246384,G1,3.5416000000000007,51.76300000000001,1.0,0.0,3.0,0.0,2.0,0.0,0.0,2.0,12.89,79.93924808594203,2.8630257936849905
2-aminobenzenesulfonic acid,Nc1ccccc1[S](O)(=O)=O,-1.7471686412,G1,0.5155000000000001,40.669,3.0,2.0,5.0,1.0,1.0,0.0,0.0,1.0,80.39,64.3999298265503,3.3721948109608206
bis(propan-2-yloxy)titaniumbis(ylium) bis((2Z)-4-oxopent-2-en-2-olate),[Ti+4].CC(C)[O-].CC(C)[O-].CC(=O)[CH-]C(C)=O.CC(=O)[CH-]C(C)=O,-2.0700509817,G1,0.2450799999999999,81.59600000000006,6.0,0.0,7.0,4.0,0.0,0.0,0.0,0.0,114.39999999999998,154.47156572345548,-6.394736806944469e-08
4-acetamidobenzene-1-sulfonyl chloride,CC(=O)Nc1ccc(cc1)[S](Cl)(=O)=O,-2.8772524161,G2,1.5724999999999998,53.78450000000002,3.0,1.0,6.0,2.0,1.0,0.0,0.0,1.0,63.24,86.30513949380608,2.951896247179317
"2,2,6-trimethylcyclohexyl propanoate",CCC(=O)OC1C(C)CCCC1(C)C,-3.8031812605,G1,3.1544000000000016,56.96700000000005,2.0,0.0,2.0,2.0,0.0,1.0,1.0,1.0,26.3,87.02285046221365,2.6507061427510767
"1,4-dimethyl benzene-1,4-dicarboxylate",COC(=O)c1ccc(cc1)C(=O)OC,-3.796856222,G5,1.2597999999999998,49.12100000000002,4.0,0.0,4.0,2.0,1.0,0.0,0.0,1.0,52.60000000000001,81.44130623618467,2.8864821283777804
2-heptylcyclopentan-1-one,CCCCCCCC1CCCC1=O,-3.7694416506,G1,3.716100000000002,55.724000000000046,1.0,0.0,1.0,6.0,0.0,1.0,1.0,1.0,17.07,81.9093052327068,1.9577733884568045
benzyl 2-phenylacetate,O=C(Cc1ccccc1)OCc2ccccc2,-3.863274879700001,G1,2.972500000000001,66.38400000000004,2.0,0.0,2.0,4.0,2.0,0.0,0.0,2.0,26.3,100.85839099830147,1.825663184229424
"N,N-dimethyl[(dimethylcarbamothioyl)sulfanyl]carbothioamide",CN(C)C(=S)SC(=S)N(C)C,-2.8302990647,G1,1.4126,60.16100000000003,3.0,0.0,5.0,0.0,0.0,0.0,0.0,0.0,6.48,82.92429945999432,3.8624101150224392
"3,7-dimethyloct-6-en-1-ol",C[C@@H](CCO)CCC=C(C)C,-2.7067344575,G3,2.7513000000000014,49.531800000000025,1.0,1.0,1.0,5.0,0.0,0.0,0.0,0.0,20.23,70.12836077741078,3.3063817487883043
"4,7-dimethyloct-6-en-3-one",CCC(=O)C(C)CC=C(C)C,-2.7010952437,G1,2.9579000000000013,48.510000000000026,1.0,0.0,1.0,4.0,0.0,0.0,0.0,0.0,17.07,69.49564912525852,3.781104777106088
"2-amino-3,5-dimethylbenzene-1-sulfonic acid",Cc1cc(C)c(N)c(c1)[S](O)(=O)=O,-1.8195435039,G1,1.13234,50.143000000000015,3.0,2.0,5.0,1.0,1.0,0.0,0.0,1.0,80.39,77.12981405534352,3.5578708456539703
thiophene,s1cccc1,-1.4450110492,G3,1.7481,24.319,1.0,0.0,1.0,0.0,1.0,0.0,0.0,1.0,0.0,35.07176638990846,3.1250000000000004
4-[2-(4-hydroxyphenyl)propan-2-yl]phenol,CC(C)(c1ccc(O)cc1)c2ccc(O)cc2,-2.8799222949,G5,3.423700000000002,68.34160000000003,2.0,2.0,2.0,2.0,2.0,0.0,0.0,2.0,40.46,101.17179117314286,2.412580781491558
"2,2,2-trichloroacetaldehyde",ClC(Cl)(Cl)C=O,-0.691340871,G2,1.5555,26.354,1.0,0.0,4.0,0.0,0.0,0.0,0.0,0.0,17.07,50.17551392291495,3.4459912135188397
2-methylbutan-1-ol,CCC(C)CO,-0.4681010618999999,G1,1.0248,26.54079999999999,1.0,1.0,1.0,2.0,0.0,0.0,0.0,0.0,20.23,38.99325323761199,2.7541847860376616
Fusel oil,CC(C)CCO,-0.4681010618999999,G5,1.0248,26.54079999999999,1.0,1.0,1.0,2.0,0.0,0.0,0.0,0.0,20.23,38.99325323761199,2.6272148478988635
"1,3-benzothiazole",s1cnc2ccccc12,-1.6538265258000002,G3,2.2963000000000005,39.62000000000002,2.0,0.0,2.0,0.0,2.0,0.0,0.0,2.0,12.89,56.97307890259017,2.954659790285104
3-nitrobenzoic acid,OC(=O)c1cccc(c1)[N+]([O-])=O,-1.7459071723,G5,1.293,40.05570000000001,3.0,1.0,5.0,2.0,1.0,0.0,0.0,1.0,80.44,67.40507680863314,3.121805775248301
dioxomolybdenum,O=[Mo]=O,-3.7396436363,G1,-0.2401,1.373,2.0,0.0,3.0,0.0,0.0,0.0,0.0,0.0,34.14,25.98479427784768,3.2659863237109046
"2,4-dihydro-1H-3,1-benzoxazine-2,4-dione",O=C1Nc2ccccc2C(=O)O1,-2.7354179060000003,G1,0.4813,43.10470000000001,3.0,1.0,4.0,0.0,2.0,0.0,0.0,2.0,63.07,66.46057665627525,3.0939322696636298
"2-hydroxy-1,2-diphenylethan-1-one",OC(c1ccccc1)C(=O)c2ccccc2,-2.8497223519,G3,2.602900000000001,62.17430000000004,2.0,1.0,2.0,3.0,2.0,0.0,0.0,2.0,37.3,94.174137406594,2.2393989303204465
octan-1-ol,CCCCCCCCO,-2.6375931207,G5,2.3392000000000013,40.4618,1.0,1.0,1.0,6.0,0.0,0.0,0.0,0.0,20.23,58.08807958080182,2.595082706793886
Tellurium dioxide,O=[Te]=O,-3.7156062333,G4,-0.6184000000000001,7.126999999999999,2.0,0.0,3.0,0.0,0.0,0.0,0.0,0.0,34.14,27.662276756143093,3.2659863237109046
"methyl 2-[(4-amino-3,5-dichloro-6-fluoropyridin-2-yl)oxy]acetate",COC(=O)COc1nc(F)c(Cl)c(N)c1Cl,-3.9512810281,G3,1.6615,56.13840000000001,5.0,1.0,8.0,3.0,1.0,0.0,0.0,1.0,74.44,100.2464485563931,2.9314149827025315
"3,7-dimethylocta-1,6-dien-3-yl acetate",CC(C)=CCCC(C)(OC(C)=O)C=C,-3.8157769203,G1,3.2406000000000024,59.03300000000004,2.0,0.0,2.0,5.0,0.0,0.0,0.0,0.0,26.3,86.64947555137437,4.187563022426478
"2,6-di-tert-butylphenol",CC(C)(C)c1cccc(c1O)C(C)(C)C,-4.7135873776,G5,3.987200000000003,65.50680000000006,1.0,1.0,1.0,0.0,1.0,0.0,0.0,1.0,20.23,93.14517378686584,3.368901573147506
dicerium(3+) ion tricarbonate,[Ce+3].[Ce+3].[O-]C([O-])=O.[O-]C([O-])=O.[O-]C([O-])=O,-5.0664023631,G1,-7.341000000000001,16.188,9.0,0.0,11.0,0.0,0.0,0.0,0.0,0.0,189.57,144.49628137371684,-2.699999991e-08
2-ethylhexyl acetate,CCCCC(CC)COC(C)=O,-4.6451400046,G1,2.765900000000001,49.93900000000003,2.0,0.0,2.0,6.0,0.0,0.0,0.0,0.0,26.3,75.29879738694966,3.453466338342537
2-methyldecanenitrile,CCCCCCCCC(C)C#N,-4.6324209502,G1,3.896680000000004,52.77000000000004,1.0,0.0,1.0,7.0,0.0,0.0,0.0,0.0,23.79,76.78125185326435,2.963924660811601
"5-[(4-chloro-2-nitrophenyl)diazenyl]-1-ethyl-6-hydroxy-4-methyl-2-oxo-1,2-dihydropyridine-3-carbonitrile",CCN1C(=O)C(=N/Nc2ccc(Cl)cc2[N+]([O-])=O)/C(=C(C#N)C1=O)C,-4.96733793,G2,2.24488,89.87110000000003,7.0,1.0,10.0,4.0,1.0,0.0,1.0,2.0,128.7,146.8674681541972,2.489053844020201
6-methylhept-1-ene,CC(C)CCCC=C,-4.458990177,G2,2.9987000000000013,38.886,0.0,0.0,0.0,4.0,0.0,0.0,0.0,0.0,0.0,52.604242796421545,2.814002148389726
"6-chloro-5-(2-chloroethyl)-2,3-dihydro-1H-indol-2-one",ClCCc1cc2CC(=O)Nc2cc1Cl,-4.7775740697,G1,2.615900000000001,58.20970000000002,1.0,1.0,4.0,2.0,1.0,0.0,1.0,2.0,29.1,92.20325716096932,2.391449750223496
bis(2-butoxyethyl) adipate,CCCCOCCOC(=O)CCCCC(=O)OCCOCCCC,-4.9587331394,G2,3.2666000000000013,91.84000000000007,6.0,0.0,6.0,17.0,0.0,0.0,0.0,0.0,71.06,145.72049209068695,3.314723362506585
"1,1'-ethane-1,1-diyldibenzene",CC(c1ccccc1)c2ccccc2,-4.6925039386,G5,3.8384000000000023,60.40100000000004,0.0,0.0,0.0,2.0,2.0,0.0,0.0,2.0,0.0,85.21838155435421,2.2962461305928525
1-benzyl-2-methylbenzene; 1-benzyl-3-methylbenzene; 1-benzyl-4-methylbenzene,Cc1ccccc1Cc2ccccc2,-4.6925039386,G1,3.585820000000002,60.42700000000004,0.0,0.0,0.0,2.0,2.0,0.0,0.0,2.0,0.0,85.21838155435421,2.2369588843757167
dineodymium(3+) ion tricarbonate,[Nd+3].[Nd+3].[O-]C([O-])=O.[O-]C([O-])=O.[O-]C([O-])=O,-5.1084204387,G1,-7.341000000000001,16.188,9.0,0.0,11.0,0.0,0.0,0.0,0.0,0.0,189.57,142.78978081065745,-2.699999991e-08
"17-Hydroxy-19-norpregn-4-ene-3,20-dione 17-acetate",CC(=O)O[C@@]1(CC[C@H]2[C@@H]3CCC4=CC(=O)CC[C@@H]4[C@H]3CC[C@]12C)C(C)=O,-4.9957539374,G1,4.0191000000000034,97.27100000000006,4.0,0.0,4.0,2.0,0.0,3.0,4.0,4.0,60.440000000000005,155.28821931349535,1.6618878892044129
"2,5-dianilinoterephthalic acid",OC(=O)c1cc(Nc2ccccc2)c(cc1Nc3ccccc3)C(O)=O,-4.9857232877,G1,4.5702000000000025,99.81000000000004,4.0,4.0,6.0,6.0,3.0,0.0,0.0,3.0,98.66,149.2867118321139,2.0645203449238503
benzyl (2E)-3-phenylprop-2-enoate,O=C(OCc1ccccc1)/C=C/c2ccccc2,-4.8207960263,G1,3.443200000000002,71.71400000000004,2.0,0.0,2.0,4.0,2.0,0.0,0.0,2.0,26.3,106.53373008051383,1.8435520044760811
"4,6-di(phenyl)-5H-1,3,5-triazin-2-one",O=C1N=C(NC(=N1)c2ccccc2)c3ccccc3,-5.4935852535,G1,2.498900000000001,73.52470000000002,3.0,1.0,4.0,2.0,3.0,0.0,0.0,3.0,58.64,109.36605757450832,2.1457679892910444
digadolinium trioxide,[O--].[O--].[O--].[Gd+3].[Gd+3],-5.0152363724,G4,-0.3564,2.0595,0.0,0.0,5.0,0.0,0.0,0.0,0.0,0.0,85.5,94.1816993478182,-0.0
"1,5-dimethyl-1-vinylhex-4-en-1-yl 2-methylpropanoate",CC(C)C(=O)OC(C)(CCC=C(C)C)C=C,-4.8105849842,G1,3.876700000000003,68.19700000000005,2.0,0.0,2.0,6.0,0.0,0.0,0.0,0.0,26.3,99.3793597801676,4.367265668690333
"(diphenylphosphoroso)(2,4,6-trimethylphenyl)methanone",Cc1cc(C)c(c(C)c1)C(=O)[P](=O)(c2ccccc2)c3ccccc3,-5.010576791,G3,4.766160000000004,104.74200000000005,2.0,0.0,3.0,4.0,3.0,0.0,0.0,3.0,34.14,148.4564819893486,2.274162133336069
"3-[(2-ethylhexanoyl)oxy]-2,2-dimethylpropyl 2-ethylhexanoate",CCCCC(CC)C(=O)OCC(C)(C)COC(=O)C(CC)CCCC,-5.0206378696,G2,5.531800000000006,102.31100000000008,4.0,0.0,4.0,14.0,0.0,0.0,0.0,0.0,52.6,154.588227974863,4.339494107981307
titanium(4+) ion zirconium(4+) ion lead(2+) ion pentaoxidandiide,[O--].[O--].[O--].[O--].[O--].[Ti+4].[Zr+4].[Pb++],-5.0982221528,G1,-0.9798,9.1865,0.0,0.0,8.0,0.0,0.0,0.0,0.0,0.0,142.5,101.30918768065004,-0.0
"ethyl 2,2-dimethyl-3-(2-methylprop-1-en-1-yl)cyclopropane-1-carboxylate",CCOC(=O)C1C(C=C(C)C)C1(C)C,-4.7652682741,G1,2.7879000000000014,56.82500000000004,2.0,0.0,2.0,3.0,0.0,1.0,1.0,1.0,26.3,86.33324743002937,2.6588530245812474
N-(4-carbamoylphenyl)-4-nitrobenzamide,NC(=O)c1ccc(NC(=O)c2ccc(cc2)[N+]([O-])=O)cc1,-4.9367254155,G1,1.946,76.0095,4.0,2.0,7.0,4.0,2.0,0.0,0.0,2.0,115.33,119.08415435756233,2.0983046308669966
"1-(6-tert-butyl-1,1-dimethyl-2,3-dihydro-1H-inden-4-yl)ethan-1-one",CC(=O)c1cc(cc2c1CCC2(C)C)C(C)(C)C,-4.8708662082,G1,4.410500000000004,76.49350000000005,1.0,0.0,1.0,1.0,1.0,0.0,1.0,2.0,17.07,110.60145732437417,2.710745229436513
"N-(4-amino-3-methoxy-9,10-dioxo-9,10-dihydroanthracen-1-yl)-4-methylbenzene-1-sulfonamide",COc1cc(N[S](=O)(=O)c2ccc(C)cc2)c3C(=O)c4ccccc4C(=O)c3c1N,-5.1125700507,G2,3.162020000000001,112.70090000000002,6.0,2.0,8.0,4.0,3.0,0.0,1.0,4.0,115.56,173.0866470383125,1.9270899693986667
2-[(3-carboxy-2-oxidonaphthalen-1-yl)diazenyl]-4-chloro-5-methylbenzenesulfonate;manganese(2+),[H+].[Mn++].Cc1cc(c(cc1Cl)N=Nc2c([O-])c(cc3ccccc23)C([O-])=O)[S]([O-])(=O)=O,-5.1704010781,G2,2.6682200000000025,97.16470000000004,8.0,0.0,11.0,4.0,3.0,0.0,0.0,3.0,145.11,182.1091344136529,2.249998855125597e-06
"2,5-bis[(4-methylphenyl)amino]terephthalic acid",Cc1ccc(Nc2cc(C(O)=O)c(Nc3ccc(C)cc3)cc2C(O)=O)cc1,-5.0705134819,G1,5.187040000000003,109.28400000000003,4.0,4.0,6.0,6.0,3.0,0.0,0.0,3.0,98.66,162.0165960609071,2.039065666766881
"(Z)-N-(4-chloro-2,5-dimethoxyphenyl)-3-hydroxynaphthalene-2-carboximidic acid",COc1cc(NC(=O)c2cc3ccccc3cc2O)c(OC)cc1Cl,-5.0622701458,G1,4.468300000000003,98.12200000000004,4.0,2.0,6.0,4.0,3.0,0.0,0.0,3.0,67.79,149.3009629222293,1.9863303805503023
2-ethylhexyl 2-methylprop-2-enoate,CCCCC(CC)COC(=O)C(C)=C,-4.8059741607,G5,3.3221000000000016,59.07900000000004,2.0,0.0,2.0,7.0,0.0,0.0,0.0,0.0,26.3,87.33907858355862,3.714658841588713
3-(chloromethyl)heptane,CCCCC(CC)CCl,-4.6808820955,G2,3.441600000000002,44.02600000000002,0.0,0.0,1.0,5.0,0.0,0.0,0.0,0.0,0.0,63.59711205548747,3.092246194602392
4-amino-N-(4-carbamoylphenyl)benzamide,NC(=O)c1ccc(NC(=O)c2ccc(N)cc2)cc1,-4.9156499936,G1,1.62,73.76750000000001,3.0,3.0,5.0,3.0,2.0,0.0,0.0,2.0,98.21,109.77106933207524,2.10094264836283
"Alcohols, C12-13",C.CCCCCCCCCCCCO,-4.8148101896,G3,4.535700000000005,65.66080000000005,1.0,1.0,1.0,10.0,0.0,0.0,0.0,0.0,20.23,90.91862130631412,0.0
10-(prop-2-enoyloxy)decyl prop-2-enoate,C=CC(=O)OCCCCCCCCCCOC(=O)C=C,-4.9608754545,G1,3.5656000000000025,79.24800000000005,4.0,0.0,4.0,13.0,0.0,0.0,0.0,0.0,52.6,121.38431133851148,3.0947974740207425
17-hydroxy-1-methylandrostan-3-one,C[C@H]1CC(=O)C[C@@H]2CC[C@H]3[C@@H]4CC[C@H](O)[C@@]4(C)CC[C@@H]3[C@@]12C,-5.0064289581,G1,4.205100000000003,87.28780000000006,2.0,1.0,2.0,0.0,0.0,4.0,4.0,4.0,37.3,134.60558243948796,1.671256444682695
"2,2,4,4-Tetramethyl-7-oxa-3,20-diazadispiro(5.1.11.2)heneicosan-21-one",CC1(C)CC2(CC(C)(C)N1)OC3(CCCCCCCCCCC3)NC2=O,-5.0846644385,G1,4.813200000000005,106.00440000000008,3.0,2.0,4.0,0.0,0.0,3.0,3.0,3.0,50.36,159.76033366633737,1.7764980843311695
"2,4-bis(2-methylbutan-2-yl)phenol",CCC(C)(C)c1ccc(O)c(c1)C(C)(C)CC,-4.892804854,G1,4.767400000000005,74.74080000000006,1.0,1.0,1.0,4.0,1.0,0.0,0.0,1.0,20.23,105.87505801565904,3.2956344601056498
oxydiethylene bis(chloroformate),ClC(=O)OCCOCCOC(Cl)=O,-4.8865490032,G1,1.7538,45.221000000000025,5.0,0.0,7.0,6.0,0.0,0.0,0.0,0.0,61.830000000000005,84.8341739421841,2.9961049979124525
(3-phenoxyphenyl)methanol,OCc1cccc(Oc2ccccc2)c1,-2.8258731416,G3,2.9712000000000005,58.88080000000004,2.0,1.0,2.0,3.0,2.0,0.0,0.0,2.0,29.46,88.7612184216605,2.1735976283693983
azacyclotridecan-2-one,O=C1CCCCCCCCCCCN1,-2.8195043204,G5,3.0172000000000008,59.17970000000005,1.0,1.0,2.0,0.0,0.0,1.0,1.0,1.0,29.1,87.45916741631484,2.1473851382465647
methyl 3-phenylacrylate,COC(=O)\C=C\c1ccccc1,-2.7343475301,G5,1.8728,47.492000000000026,2.0,0.0,2.0,2.0,1.0,0.0,0.0,1.0,26.3,71.47663587444978,2.637870167687777
"2-methyl-4,6-bis(methylsulfanyl)benzene-1,3-diamine; 4-methyl-2,6-bis(methylsulfanyl)benzene-1,3-diamine",CSc1cc(SC)c(N)c(C)c1N,-2.8569254583,G3,2.6032200000000003,63.56580000000001,4.0,2.0,4.0,2.0,1.0,0.0,0.0,1.0,52.04,87.4522309074427,3.3617208875512854
"4-allyl-1,2-dimethoxybenzene",COc1ccc(\C=C\C)cc1OC,-2.7782267945,G1,2.736900000000001,54.25400000000003,2.0,0.0,2.0,3.0,1.0,0.0,0.0,1.0,18.46,78.7936011183095,3.050120428414819
2-methylquinolin-8-ol,Cc1ccc2cccc(O)c2n1,-1.7306186153,G1,2.2488200000000007,48.144800000000025,2.0,1.0,2.0,0.0,2.0,0.0,0.0,2.0,33.120000000000005,70.4918914987713,2.87714455842684
cobalt(2+) bis[3-(3-ethylcyclopentyl)propanoate],[Co++].CCC1CCC(CCC([O-])=O)C1.CCC2CCC(CCC([O-])=O)C2,-3.1323831914,G1,2.6831000000000005,90.72600000000008,4.0,0.0,5.0,8.0,0.0,2.0,2.0,2.0,80.25999999999999,162.898865233778,4.430769113041424e-07
"3-[2,2-dimethyl-3-(3-prop-2-enoyloxypropoxy)propoxy]propyl prop-2-enoate",CC(C)(COCCCOC(=O)C=C)COCCCOC(=O)C=C,-3.0495421403,G1,2.2844000000000007,86.96500000000005,6.0,0.0,6.0,14.0,0.0,0.0,0.0,0.0,71.06,137.97634391192184,3.532312207893033
pentyl formate,CCCCCOC=O,-1.6020599913,G1,1.3496,31.540999999999983,2.0,0.0,2.0,5.0,0.0,0.0,0.0,0.0,26.3,49.83902892936323,2.616293090417985
"1,3-dimethyl benzene-1,3-dicarboxylate",COC(=O)c1cccc(c1)C(=O)OC,-2.825819918,G1,1.2597999999999998,49.12100000000002,4.0,0.0,4.0,2.0,1.0,0.0,0.0,1.0,52.60000000000001,81.44130623618467,3.006336626481918
ethenylbenzene,C=Cc1ccccc1,-2.5552696161000004,G5,2.3296,36.53300000000001,0.0,0.0,0.0,1.0,1.0,0.0,0.0,1.0,0.0,49.47168431610592,2.991046914684621
hexyl 2-methylprop-2-enoate,CCCCCCOC(=O)C(C)=C,-3.7554210341,G1,2.686000000000001,49.91500000000003,2.0,0.0,2.0,6.0,0.0,0.0,0.0,0.0,26.3,74.6091943547654,3.19978738372766