Name,SMILES,Solubility,Group,MolLogP,MolMR,NumHAcceptors,NumHDonors,NumHeteroatoms,NumRotatableBonds,NumAromaticRings,NumSaturatedRings,NumAliphaticRings,RingCount,TPSA,LabuteASA,BalabanJ
cinmetacin,COc1ccc2n(c(C)c(CC(O)=O)c2c1)C(=O)\C=C\c3ccccc3,-5.5433,G1,3.939020000000003,100.66930000000002,4.0,1.0,5.0,5.0,3.0,0.0,0.0,3.0,68.53,150.6851087152883,2.096537532177531
diethyl pentyl phosphate,CCCCCO[P](=O)(OCC)OCC,-1.4757,G1,3.3743000000000025,56.33550000000005,4.0,0.0,5.0,9.0,0.0,0.0,0.0,0.0,44.760000000000005,86.54903430599812,3.776797252983613
"2-butanol, 3,3-dimethyl-, (.+-.)-",CC(O)C(C)(C)C,-0.6238,G1,1.4133,31.135799999999985,1.0,1.0,1.0,0.0,0.0,0.0,0.0,0.0,20.23,45.35819535200859,3.541196965079901
"3-octanol, (.+-.)-",CCCCCC(O)CC,-2.0171,G5,2.3376,40.439800000000005,1.0,1.0,1.0,5.0,0.0,0.0,0.0,0.0,20.23,58.08807958080181,2.8766225950797444
"phosphorodithioic acid, s-[2-(ethylsulfonyl)ethy",CC[S](=O)(=O)CCS[P](=S)(OC)OC,-2.5415,G1,1.6716,65.08880000000003,6.0,0.0,8.0,7.0,0.0,0.0,0.0,0.0,52.60000000000001,94.58140293418244,4.02527025754518
tripropylene glycol methyl ether,COCC(C)OCC(C)OCC(C)O,0.6855,G1,0.8238000000000001,54.38480000000004,4.0,1.0,4.0,8.0,0.0,0.0,0.0,0.0,47.92,86.15859949811566,3.379510761201492
"acetamide, n-(4-propoxyphenyl)-",CCCOc1ccc(NC(C)=O)cc1,-3.0557,G1,2.4338000000000006,56.53170000000004,2.0,1.0,3.0,4.0,1.0,0.0,0.0,1.0,38.33,84.0810432046387,2.543944627199978
"2-bornanone, 3-(hydroxymethyl)-",CC1(C)C2CCC1(C)C(=O)C2CO,-0.215,G1,1.6201,50.19480000000003,2.0,1.0,2.0,1.0,0.0,2.0,2.0,2.0,37.3,79.33276571697695,2.444367528210742
"urea, 1-methyl-1-o-tolyl-",CN(C(N)=O)c1ccccc1C,-0.4032,G1,1.5099200000000002,49.16540000000002,1.0,1.0,3.0,1.0,1.0,0.0,0.0,1.0,46.33,71.78747592994662,3.0227910918592995
1-hexyl nitrate,CCCCCCO[N+]([O-])=O,-3.1265,G1,1.775,37.0884,3.0,0.0,4.0,6.0,0.0,0.0,0.0,0.0,52.37,60.28452105129724,2.8385891218139165
"urea, 1-ethyl-1-o-tolyl-",CCN(C(N)=O)c1ccccc1C,-0.2096,G1,1.9000200000000005,53.78240000000002,1.0,1.0,3.0,2.0,1.0,0.0,0.0,1.0,46.33,78.15241804434324,3.0444220824956174
"5-pyrimidineacetic acid, 1,2,3,4-tetrahydro-2,4-",OC(=O)CC1=CNC(=O)NC1=O,-1.6287,G1,-1.3097,39.0232,3.0,3.0,6.0,2.0,1.0,0.0,0.0,1.0,103.01999999999998,65.87938336251051,3.1044192645580067
"1,2-pentanediol, 1-phenyl-2-propyl-",CCCC(O)(CCC)C(O)c1ccccc1,-2.648,G1,3.051300000000001,66.16760000000005,2.0,2.0,2.0,6.0,1.0,0.0,0.0,1.0,40.46,97.93940753906188,2.8611993264104183
"1,2-hexanediol, 2-butyl-1phenyl-",CCCCC(O)(CCCC)C(O)c1ccccc1,-3.2225,G1,3.831500000000003,75.40160000000006,2.0,2.0,2.0,8.0,1.0,0.0,0.0,1.0,40.46,110.6692917678551,2.8036545237207315
"pyridine, 2,3,4,6-tetramethyl-",Cc1cc(C)c(C)c(C)n1,-1.3069,G1,2.3152800000000004,43.18500000000002,1.0,0.0,1.0,0.0,1.0,0.0,0.0,1.0,12.89,62.11081955802991,3.310532874722407
chloraniformethane,Clc1ccc(NC(NC=O)C(Cl)(Cl)Cl)cc1Cl,-3.3228,G1,3.847600000000001,73.36240000000001,2.0,2.0,8.0,4.0,1.0,0.0,0.0,1.0,41.13,123.30380706435498,2.8579212139776007
"1,2,4-thiadiazolidine-3,5-dithione",S=C1NSC(=S)N1,-1.7618,G1,1.86328,34.688399999999994,3.0,2.0,5.0,0.0,1.0,0.0,0.0,1.0,31.58,54.36971283515665,3.5924568113957625
tonalid,CC1CC(C)(C)c2cc(C(C)=O)c(C)cc2C1(C)C,-5.3154,G1,4.792620000000005,81.01650000000005,1.0,0.0,1.0,1.0,1.0,0.0,1.0,2.0,17.07,116.96639943877078,2.754631816447549
"1,3-benzenedicarboxylic acid, 2-nitro-",OC(=O)c1cccc(C(O)=O)c1[N+]([O-])=O,-1.9901,G1,0.9912,47.01499999999999,4.0,2.0,7.0,3.0,1.0,0.0,0.0,1.0,117.74,82.72577477526953,3.55594512931231
prynachlor,CC(C#C)N(C(=O)CCl)c1ccccc1,-2.6468,G1,2.2801,62.94300000000003,1.0,0.0,3.0,3.0,1.0,0.0,0.0,1.0,20.31,94.84490319486471,3.028043102993094
"2-butanol, 3-chloro-2-methyl-",CC(Cl)C(C)(C)O,-0.2926,G1,1.3846,31.612799999999982,1.0,1.0,2.0,1.0,0.0,0.0,0.0,0.0,20.23,49.29651946449366,3.541196965079901
"4,6-dinitro-biphenyl-3-ol",Oc1cc(c2ccccc2)c(cc1[N+]([O-])=O)[N+]([O-])=O,-4.4611,G1,2.8756000000000013,66.8516,5.0,1.0,7.0,3.0,2.0,0.0,0.0,2.0,106.51,106.5886825227566,2.7092922911430546
fosthietan,CCO[P](=O)(OCC)N=C1SCS1,-0.6835,G1,2.961000000000001,58.34250000000003,5.0,0.0,7.0,5.0,0.0,1.0,1.0,1.0,47.89,86.4459132339936,2.5943379087539564
2-(thiocyanatemethylthio)benzothiazole,N#CSCSc1sc2ccccc2n1,-3.2803,G1,3.5601800000000017,63.54800000000003,5.0,0.0,5.0,3.0,2.0,0.0,0.0,2.0,36.68,94.3417628635826,2.1548975833021293
"4-heptanol, 2-methyl-",CCCC(O)CC(C)C,-1.9079,G1,2.1935,40.369800000000005,1.0,1.0,1.0,4.0,0.0,0.0,0.0,0.0,20.23,58.08807958080181,3.151251388899732
"benzoic acid, 5-bromo-2-chloro-",[O-]C(=O)c1cc(Br)ccc1Cl,-1.952,G1,1.466,43.48250000000001,2.0,0.0,4.0,1.0,1.0,0.0,0.0,1.0,40.13,76.92291491865637,3.232208870305491
"2h-1,4-benzoxazin-3(4h)-one, 4-methyl-",CN1C(=O)COc2ccccc12,-2.1445,G1,1.0417999999999998,45.34700000000002,2.0,0.0,3.0,0.0,1.0,0.0,1.0,2.0,29.540000000000003,70.55529930891156,2.4839707746704804
"acetic acid, 1-(3,4-dichlorophenyl)-2,2,2-trichl",CC(=O)OC(c1ccc(Cl)c(Cl)c1)C(Cl)(Cl)Cl,-3.8279,G1,4.967800000000001,71.25900000000003,2.0,0.0,7.0,2.0,1.0,0.0,0.0,1.0,26.3,123.68257004104238,3.128261267611269
di-sec-butanolamine,CCC(O)CNCC(O)CC,0.7925,G1,0.1177999999999995,45.46530000000002,3.0,3.0,3.0,6.0,0.0,0.0,0.0,0.0,52.49,68.43217551660585,3.1273714619787736
isopentyl nitrate,CCCC(C)O[N+]([O-])=O,-2.4809,G1,1.3833,32.44939999999999,3.0,0.0,4.0,4.0,0.0,0.0,0.0,0.0,52.37,53.91957893690064,3.259231489128124
cartap hydrochloride,[Cl-].C[NH+](C)C(CSC(N)=O)CSC(N)=O,-0.1364,G1,-3.872699999999997,60.681500000000014,4.0,3.0,8.0,5.0,0.0,0.0,0.0,0.0,90.62,104.09087628180544,0.0
"1,2,3-thiadiazole-4-carboxylic acid, 5-methyl-",Cc1snnc1C(O)=O,-0.4598,G1,0.5447199999999999,31.60529999999999,4.0,1.0,5.0,1.0,1.0,0.0,0.0,1.0,63.080000000000005,55.30624599018461,3.0766634399873354
biopterin,CC(O)C(O)c1cnc2NC(=NC(=O)c2n1)N,-2.5301,G3,-1.2905,59.00670000000001,7.0,4.0,8.0,2.0,2.0,0.0,0.0,2.0,138.01,95.17636621965654,2.619469435147292
benzoylprop ethyl,CCOC(=O)C(C)N(C(=O)c1ccccc1)c2ccc(Cl)c(Cl)c2,-4.2627,G1,4.591800000000004,95.80850000000004,3.0,0.0,6.0,5.0,2.0,0.0,0.0,2.0,46.61,150.4811055655018,2.4607081560570165
tetrachlorvinphos,CO[P](=O)(OC)OC(=C/Cl)/c1cc(Cl)c(Cl)cc1Cl,-4.5221,G1,5.6015000000000015,78.01150000000003,4.0,0.0,9.0,5.0,1.0,0.0,0.0,1.0,44.760000000000005,130.30487981542154,3.195069219267893
"acetamide, n-(4-ethoxyphenyl)-2-hydroxy-",CCOc1ccc(NC(=O)CO)cc1,-2.1058,G1,1.0161,53.32650000000002,3.0,2.0,4.0,4.0,1.0,0.0,0.0,1.0,58.56,82.51033484243811,2.589071736723409
"acetic acid, bis(2-carboxyphenyl)-",OC(=O)C(c1ccccc1C(O)=O)c2ccccc2C(O)=O,-2.4998,G1,2.2995,76.28140000000003,3.0,3.0,6.0,5.0,2.0,0.0,0.0,2.0,111.9,124.8155333398668,2.708249577708347
"methanesulfonamide, n-phenyl-n-((1,1,2,2-tetrach",C[S](=O)(=O)N(SC(Cl)(Cl)C(F)(Cl)Cl)c1ccccc1,-5.1485,G1,4.333100000000003,81.33780000000002,3.0,0.0,10.0,5.0,1.0,0.0,0.0,1.0,37.38,134.68392687175188,3.165799885045667
"benzenepropanoic acid, 2-nitro-.beta.-oxo-",OC(=O)CC(=O)c1ccccc1[N+]([O-])=O,-1.8434,G1,1.2522,49.67970000000001,4.0,1.0,6.0,4.0,1.0,0.0,0.0,1.0,97.51,84.29648313747012,3.077424312421191
bendiocarb,CNC(=O)Oc1cccc2OC(C)(C)Oc12,-2.9338,G3,1.9121,56.86070000000003,4.0,1.0,5.0,1.0,1.0,0.0,1.0,2.0,56.790000000000006,93.3023025101232,2.29808275403828
anisomycin,COc1ccc(C[C@@H]2NC[C@@H](O)[C@@H]2OC(C)=O)cc1,-1.6075,G1,0.5020999999999994,70.04950000000004,5.0,2.0,5.0,4.0,1.0,1.0,1.0,2.0,67.78999999999999,112.07781737600222,2.0154233929330507
"propanoic acid, 2,2,3,3-tetrafluoro-, sodium sal",[Na+].[O-]C(=O)C(F)(F)C(F)F,-0.8829,G1,-3.3592999999999984,15.958000000000002,2.0,0.0,7.0,2.0,0.0,0.0,0.0,0.0,40.13,75.50043234327943,0.0
dimethamrtryne,CCNc1nc(NC(C)C(C)C)nc(SC)n1,-3.7082,G1,2.4817,73.69440000000003,6.0,2.0,6.0,6.0,1.0,0.0,0.0,1.0,62.73,107.23271837009068,2.861018206511757
cyprazine,CC(C)Nc1nc(Cl)nc(NC2CC2)n1,-3.5185,G2,1.9196,60.24040000000002,5.0,2.0,6.0,4.0,1.0,1.0,1.0,2.0,62.73,93.67715918928468,2.113182238669608
prallethrin,CC(C)=C[C@H]1[C@H](C(=O)OC2CC(=O)C(=C2C)CC#C)C1(C)C,-4.5746,G1,3.449200000000002,85.84600000000005,3.0,0.0,3.0,4.0,0.0,1.0,2.0,2.0,43.370000000000005,132.35315553699522,2.072272288421603
"1h-purine-2,6-dione, 7-ethyl-3,7-dihydro-1,3-dim",CCn1cnc2N(C)C(=O)N(C)C(=O)c12,-0.7544,G1,-0.5464000000000002,55.88900000000001,6.0,0.0,6.0,1.0,2.0,0.0,0.0,2.0,61.82,85.39389913254594,3.112238371078967
pirimicarb,CN(C)C(=O)Oc1nc(nc(C)c1C)N(C)C,-1.9457,G1,1.2198399999999998,65.54400000000004,5.0,0.0,6.0,2.0,1.0,0.0,0.0,1.0,58.56000000000001,101.22002855212362,3.09733777706589
oxamyl,CNC(=O)O\N=C(SC)\C(=O)N(C)C,0.1062,G1,0.1070999999999999,55.18470000000002,5.0,1.0,7.0,1.0,0.0,0.0,0.0,0.0,70.99999999999999,86.64766000831835,4.399365653142079
"1h-purine-2,6-dione, 3,7-dihydro-7-(3-hydroxypro",CN1C(=O)N(C)c2ncn(CCCO)c2C1=O,-0.1551,G1,-1.1839000000000002,61.91780000000002,7.0,1.0,7.0,3.0,2.0,0.0,0.0,2.0,82.05000000000001,96.55307499913856,2.766339791568492
formetanate hydrochloride,[H+].[Cl-].CNC(=O)Oc1cccc(c1)N=CN(C)C,0.5037,G1,-1.2572999999999988,64.47670000000002,3.0,1.0,6.0,3.0,1.0,0.0,0.0,1.0,53.93,108.37409098274712,0.0
pirimiphos ethyl,CCO[P](=S)(OCC)Oc1cc(C)nc(n1)N(CC)CC,-4.9242,G1,3.307520000000002,88.49500000000005,7.0,0.0,8.0,9.0,1.0,0.0,0.0,1.0,56.71,131.6355755728964,3.040411648843268
heptenophos,CO[P](=O)(OC)OC1=C(Cl)C2C=CCC12,-2.0011,G1,3.060200000000002,56.32550000000002,4.0,0.0,6.0,4.0,0.0,0.0,2.0,2.0,44.760000000000005,93.46143216145283,2.115993973508301
thiophanate-methyl,COC(=O)NC(=S)Nc1ccccc1NC(=S)NC(=O)OC,-4.1097,G1,1.7921999999999998,89.96480000000001,6.0,4.0,10.0,2.0,1.0,0.0,0.0,1.0,100.72,137.08819969381986,2.7297769021233167
"octanedioic acid, 3,3,6,6-tetramethyl-",CC(C)(CCC(C)(C)CC(O)=O)CC(O)=O,-3.1319,G1,2.7684000000000006,61.30160000000004,2.0,2.0,4.0,7.0,0.0,0.0,0.0,0.0,74.6,96.66512599067184,4.211230260443652
n-hexyl nicotinoate,CCCCCCOC(=O)c1cccnc1,-2.6538,G1,2.818700000000001,58.66150000000004,3.0,0.0,3.0,6.0,1.0,0.0,0.0,1.0,39.19,90.48071323077036,2.195736743827031
"phosphonic acid, (1,6-hexanediylbis(nitrilobis(m",O[P](O)(=O)CN(CCCCCCN(C[P](O)(O)=O)C[P](O)(O)=O)C[P](O)(O)=O,-1.5161,G1,-0.3084000000000004,99.5244,6.0,8.0,18.0,15.0,0.0,0.0,0.0,0.0,236.6,161.7490290807653,4.410264171931974
"1h-purin-8-amine, n,n-dimethyl-",CN(C)c1[nH]c2cncnc2n1,-1.3885,G1,0.4188999999999999,46.010700000000014,4.0,1.0,5.0,1.0,2.0,0.0,0.0,2.0,57.7,69.47088991408259,2.620326401241111
"pteridine, 2,6,7-trimethyl-",Cc1ncc2nc(C)c(C)nc2n1,-1.1442,G1,1.34506,49.33900000000001,4.0,0.0,4.0,0.0,2.0,0.0,0.0,2.0,51.56,76.08648591820804,2.81148314052133
"d-glucose, (aminocarbonyl)hydrazone",NC(=O)NN=C[C@H](O)[C@@H](O)[C@H](O)[C@H](O)CO,-1.0041,G1,-3.9236,52.32410000000002,7.0,7.0,9.0,6.0,0.0,0.0,0.0,0.0,168.63,90.81680596194887,4.2091137290224685
"5-pyrimidinecarboxylic acid, 1,2,3,4-tetrahydro-",OC(=O)C1=CNC(=O)NC1=O,-1.9381,G1,-1.2386,34.64269999999999,3.0,3.0,6.0,1.0,1.0,0.0,0.0,1.0,103.01999999999998,59.514441248113904,3.433954173266979
pronamide,CC(C)(NC(=O)c1cc(Cl)cc(Cl)c1)C#C,-4.2324,G1,3.1350000000000016,66.84020000000002,1.0,1.0,4.0,2.0,1.0,0.0,0.0,1.0,29.1,104.93819793515104,2.9422622687262594
triazophos,CCO[P](=S)(OCC)Oc1ncn(n1)c2ccccc2,-3.9049,G3,2.9436000000000018,79.52400000000003,7.0,0.0,8.0,7.0,2.0,0.0,0.0,2.0,58.4,122.49571101278842,2.145092887186004
"naphtho[2,3-c]furan-1(3h)-one, 3,3-dimethyl-",CC1(C)OC(=O)c2cc3ccccc3cc12,-2.9844,G1,3.245300000000002,62.389500000000034,2.0,0.0,2.0,0.0,2.0,0.0,1.0,3.0,26.3,93.84207228484004,2.3810581534161024
2-methyl-4-bromoacetanilide,CC(=O)Nc1ccc(Br)cc1C,-1.756,G1,2.715920000000001,53.18270000000002,1.0,1.0,3.0,1.0,1.0,0.0,0.0,1.0,29.1,80.10516135197996,2.9348021246299894
"acetamide-2-chloro-n-(2,6-dimethylphenyl)-n-((2-",CC(C)COCN(C(=O)CCl)c1c(C)cccc1C,-3.6822,G1,3.505340000000002,79.77900000000005,2.0,0.0,4.0,6.0,1.0,0.0,0.0,1.0,29.54,120.05404937570212,2.934185524729387
fenfuram,Cc1occc1C(=O)Nc2ccccc2,-3.3037,G1,2.840320000000001,57.84020000000002,2.0,1.0,3.0,2.0,2.0,0.0,0.0,2.0,42.24,87.72409510208286,2.1481615627939488
"hexanedioic acid, 3-butyl-",CCCCC(CCC(O)=O)CC(O)=O,-1.3974,G1,2.1323,52.13760000000003,2.0,2.0,4.0,8.0,0.0,0.0,0.0,0.0,74.6,83.93524176187859,3.831950489575949
"cyclopentaneacetic acid, 3-oxo-2-pentyl-, methyl",CCCCCC1C(CCC1=O)CC(=O)OC,-2.9076,G3,2.725100000000001,61.996000000000045,3.0,0.0,3.0,6.0,0.0,1.0,1.0,1.0,43.370000000000005,97.54931467665402,2.42257678792301
"4(1h)-pteridinone, 6,7-diphenyl-",O=C1N=CNc2nc(c3ccccc3)c(nc12)c4ccccc4,-3.1766,G1,3.0471000000000013,88.82570000000001,4.0,1.0,5.0,2.0,4.0,0.0,0.0,4.0,71.53,131.26737008719007,2.090303573599732
"phenol, 2-iodo-6-methyl-",Cc1cccc(I)c1O,-1.8378,G1,2.3052200000000007,45.560800000000015,1.0,1.0,2.0,0.0,1.0,0.0,0.0,1.0,20.23,67.85241710713322,3.2478347337367026
"2,5-dichlorodiphenyl ether",Clc1ccc(Cl)c(Oc2ccccc2)c1,-4.9703,G1,4.785700000000002,62.97800000000002,1.0,0.0,3.0,2.0,2.0,0.0,0.0,2.0,9.23,98.20857500883125,2.28073295107281
"3,4',5-trichlorodiphenyl ether",Clc1ccc(Oc2cc(Cl)cc(Cl)c2)cc1,-5.5201,G1,5.4391000000000025,67.98800000000003,1.0,0.0,4.0,2.0,2.0,0.0,0.0,2.0,9.23,108.5118412357129,2.2301061936003337
chlormephos,CCO[P](=S)(OCC)SCCl,-3.5924,G1,3.213400000000002,55.84800000000003,4.0,0.0,6.0,6.0,0.0,0.0,0.0,0.0,18.46,81.8943286648809,3.908471949775869
benazolin-ethyl,CCOC(=O)CN1C(=O)Sc2cccc(Cl)c12,-3.762,G1,2.2795000000000005,67.72800000000002,5.0,0.0,6.0,3.0,2.0,0.0,0.0,2.0,48.3,106.382674503248,2.4940706244968784
"acetic acid, (2,4-dinitrophenoxy)-",OC(=O)COc1ccc(cc1[N+]([O-])=O)[N+]([O-])=O,-1.9369,G1,0.9664,52.8816,6.0,1.0,9.0,5.0,1.0,0.0,0.0,1.0,132.81,93.53653987503642,3.0834034339869945
"2,4-d, isooctyl ester",CCCCC(CC)COC(=O)COc1ccc(Cl)cc1Cl,-7.0122,G1,5.131800000000005,86.22200000000005,3.0,0.0,5.0,9.0,1.0,0.0,0.0,1.0,35.53,136.0759692762839,2.329795846341474
hexene - mixture of isomers,CCC\C=C\C,-3.2262,G1,2.3626000000000005,29.721999999999984,0.0,0.0,0.0,2.0,0.0,0.0,0.0,0.0,0.0,39.874358567628335,2.65809993624902
dipropylene glycol,CCC(O)OC(O)CC,0.8723,G1,0.4598,33.68059999999999,3.0,2.0,3.0,4.0,0.0,0.0,0.0,0.0,49.69,55.26597433371149,3.2230469044906185
"benzenesulfonamide, 4-(mannopyranosylamino)-",N[S](=O)(=O)c1ccc(NC2O[C@H](CO)[C@@H](O)[C@H](O)[C@@H]2O)cc1,-0.9801,G1,-2.4541999999999984,75.2051,8.0,6.0,10.0,4.0,1.0,1.0,1.0,2.0,162.34,126.55623366367418,2.1214388593009184
mcpa-thioethyl,CCSC(=O)COc1ccc(Cl)cc1C,-5.027,G1,3.3069200000000016,64.82300000000002,3.0,0.0,4.0,4.0,1.0,0.0,0.0,1.0,26.3,98.95755727327756,2.5396182727640744
1-<hydroxyimino-(seqtrans)>-1-phenyl-acetone,CC(=O)C(=N\O)/c1ccccc1,-2.3676,G1,1.4539,45.44650000000002,3.0,1.0,3.0,2.0,1.0,0.0,0.0,1.0,49.66,70.33134630026466,3.053374849386149
thiazafluron,CNC(=O)N(C)c1sc(nn1)C(F)(F)F,-2.0584,G3,1.3325,47.7697,4.0,1.0,9.0,1.0,1.0,0.0,0.0,1.0,58.120000000000005,86.90710854042652,2.894631590511528
"1,2-dibromoethene",Br\C=C\Br,-1.7415,G1,2.2474,26.994,0.0,0.0,2.0,0.0,0.0,0.0,0.0,0.0,0.0,42.14968532132462,2.549193338482967
hydroxycinnamic acid,OC(=O)\C=C/c1cccc(O)c1,-2.099,G1,1.49,44.776600000000016,2.0,2.0,3.0,2.0,1.0,0.0,0.0,1.0,57.53,69.58661603493832,2.826395262966909
dowanol tpm,COCC(C)OCC(C)OC(C)CO,0.6855,G1,0.8238000000000001,54.38480000000004,4.0,1.0,4.0,8.0,0.0,0.0,0.0,0.0,47.92,86.15859949811568,3.4706387663275087
fosamine ammonium salt,[NH4+].CCO[P]([O-])(=O)C(N)=O,0.7693,G1,0.0311999999999997,34.8007,4.0,2.0,7.0,3.0,0.0,0.0,0.0,0.0,128.95000000000002,58.47701781567661,0.0
"1,4-naphthalenedione, 2-(methylthio)-",CSC1=CC(=O)c2ccccc2C1=O,-4.4651,G1,2.3125,56.70100000000002,3.0,0.0,3.0,1.0,1.0,0.0,1.0,2.0,34.14,86.0068337312193,2.607225421618922
profluralin,CCCN(CC1CC1)c2c(cc(cc2[N+]([O-])=O)C(F)(F)F)[N+]([O-])=O,-6.5407,G1,4.148200000000004,79.9808,5.0,0.0,10.0,7.0,1.0,1.0,1.0,2.0,89.51999999999998,134.9075002051223,2.647319126416257
tirpate,CNC(=O)O/N=C/C1(C)SCC(C)S1,-2.3698,G1,1.9129,61.94870000000003,5.0,1.0,6.0,2.0,0.0,1.0,1.0,1.0,50.69,92.20852522430384,2.3910140355400618
cresyl diphenyl phosphate,Cc1ccc(O[P](=O)(Oc2ccccc2)Oc3ccccc3)cc1,-6.1517,G1,5.6399200000000045,93.55350000000004,4.0,0.0,5.0,6.0,3.0,0.0,0.0,3.0,44.760000000000005,140.8007800090174,1.869696795166848
"phosphoric acid, bis(methylphenyl) phenyl ester",Cc1ccc(O[P](=O)(Oc2ccccc2)Oc3ccccc3C)cc1,-6.3733,G1,5.948340000000005,98.29050000000004,4.0,0.0,5.0,6.0,3.0,0.0,0.0,3.0,44.760000000000005,147.165722123414,1.9057935088714708
"3(2h)-isothiazolone, 2-octyl-",CCCCCCCCN1SC=CC1=O,-2.6301,G1,3.2703000000000024,61.955000000000034,3.0,0.0,3.0,7.0,1.0,0.0,0.0,1.0,22.0,89.72353486161234,2.0474970762978213
hexachlorobiphenyl,Clc1ccccc1c2c(Cl)c(Cl)c(Cl)c(Cl)c2Cl,-8.0133,G1,7.274,81.938,0.0,0.0,6.0,1.0,2.0,0.0,0.0,2.0,0.0,134.308094686851,2.848874224816376
"phosphoric acid, diethyl 2-methylpropyl ester",CCO[P](=O)(OCC)OCC(C)C,-1.1765,G1,2.8401000000000014,51.64850000000004,4.0,0.0,5.0,7.0,0.0,0.0,0.0,0.0,44.760000000000005,80.18409219160151,3.993597833750557
"pentanoic acid, 4-oxo-3-(phenylmethylene)-",CC(=O)C(CC(O)=O)=Cc1ccccc1,-1.6111,G1,2.1337,57.35280000000003,2.0,1.0,3.0,4.0,1.0,0.0,0.0,1.0,54.37,88.04873072597591,2.9404586486889475
"4(1h)-pyrimidinone, 5-bromo-2-phenyl-",BrC1=CNC(=NC1=O)c2ccccc2,-3.4792,G1,2.1994,57.99370000000001,2.0,1.0,4.0,1.0,2.0,0.0,0.0,2.0,45.75,88.95686299313915,2.5393077873022483
"butanoic acid, 1,2-ethanediylbis(oxy-2,1-ethaned",CCCC(=O)OCCOCCOCCOC(=O)CCC,-1.5598,G1,1.7061999999999995,73.37200000000006,6.0,0.0,6.0,13.0,0.0,0.0,0.0,0.0,71.06,120.26072363310053,3.1326645017212487
"3-pyridinecarboxamide, n-[(phenylamino)carbonyl]",O=C(NC(=O)c1cccnc1)Nc2ccccc2,-3.3825,G1,2.0435,67.16390000000003,3.0,2.0,5.0,2.0,2.0,0.0,0.0,2.0,71.09,103.86079810260436,1.9436440347490536
tetradecanol,CCCCCCCCCCC(O)CCC,-5.837000000000001,G1,4.678200000000004,68.14180000000006,1.0,1.0,1.0,11.0,0.0,0.0,0.0,0.0,20.23,96.27773226718148,2.977345817787324
norflurazon,CNC1=C(Cl)C(=O)N(N=C1)c2cccc(c2)C(F)(F)F,-3.9548,G5,2.946400000000001,69.3927,4.0,1.0,8.0,2.0,2.0,0.0,0.0,2.0,46.92,116.34735929055948,2.584858591083336
tetrachlorophthalide,Clc1c(Cl)c(Cl)c2C(=O)OCc2c1Cl,-5.0365,G1,3.9706,55.6015,2.0,0.0,6.0,0.0,1.0,0.0,1.0,2.0,26.3,99.6435884318383,2.839800155260925
ethychlozate,CCOC(=O)Cc1[nH]nc2ccc(Cl)cc12,-3.0256,G1,2.3219000000000003,61.44070000000002,3.0,1.0,5.0,3.0,2.0,0.0,0.0,2.0,54.98,97.54843163561644,2.3036607238603297
quinonamid,ClC(Cl)C(=O)NC1=C(Cl)C(=O)c2ccccc2C1=O,-5.0261,G1,2.4359,71.61870000000002,3.0,1.0,7.0,2.0,1.0,0.0,1.0,2.0,63.24,122.86984878454751,2.458501831672648
diisooctyl phthalate,CC(C)CCCCCOC(=O)c1ccccc1C(=O)OCCCCCC(C)C,-6.6375,G1,6.433000000000007,113.61900000000009,4.0,0.0,4.0,14.0,1.0,0.0,0.0,1.0,52.60000000000001,170.55049583773726,2.388879530306986
probenazole,C=CCOC1=N[S](=O)(=O)c2ccccc12,-3.1727,G1,1.3381,56.31380000000003,3.0,0.0,5.0,2.0,1.0,0.0,1.0,2.0,55.73,87.965380999152,2.484134104564599
"2-butanone, 3-ethoxy-1,1-dihydroxy-; or kethoxal",CCOC(C)C(=O)C(O)O,-0.1707,G1,-0.7088,34.32059999999999,4.0,2.0,4.0,4.0,0.0,0.0,0.0,0.0,66.76,59.42749643375525,3.7051934500944976
isopropyl phenyl diphenyl phosphate,CC(C)c1ccccc1O[P](=O)(Oc2ccccc2)Oc3ccccc3,-5.2239,G1,6.454900000000006,102.90550000000005,4.0,0.0,5.0,7.0,3.0,0.0,0.0,3.0,44.760000000000005,153.53066423781056,1.9374096013392923
"2h-purine-2-thione, 1,3-dihydro-",S=C1Nc2nc[nH]c2C=N1,-2.5803,G1,1.0154899999999998,39.07339999999999,3.0,2.0,5.0,0.0,2.0,0.0,0.0,2.0,57.36,61.339952262290886,2.990320309898347
"2,6-dinitro-biphenyl-3-ol",Oc1ccc(c(c2ccccc2)c1[N+]([O-])=O)[N+]([O-])=O,-3.7164,G1,2.875600000000002,66.8516,5.0,1.0,7.0,3.0,2.0,0.0,0.0,2.0,106.51,106.5886825227566,2.849219805063256
chloromethiuron,CN(C)C(=S)Nc1ccc(Cl)cc1C,-3.6604,G1,2.9068200000000006,66.09670000000003,1.0,1.0,4.0,1.0,1.0,0.0,0.0,1.0,15.27,94.86291390498135,2.821792429202683
"2,6-dichlorodiphenyl ether",Clc1cccc(Cl)c1Oc2ccccc2,-5.0605,G1,4.785700000000002,62.97800000000003,1.0,0.0,3.0,2.0,2.0,0.0,0.0,2.0,9.23,98.20857500883125,2.3241297489229016
bioresmethrin,CC(C)=CC1C(C(=O)OCc2coc(Cc3ccccc3)c2)C1(C)C,-6.0524,G3,5.1520000000000055,97.94400000000007,3.0,0.0,3.0,6.0,2.0,1.0,1.0,3.0,39.44,149.2417651062343,1.5422099361914814