Name,SMILES,Solubility,Group,MolLogP,MolMR,NumHAcceptors,NumHDonors,NumHeteroatoms,NumRotatableBonds,NumAromaticRings,NumSaturatedRings,NumAliphaticRings,RingCount,TPSA,LabuteASA,BalabanJ
"2,2-bis[(prop-2-en-1-yloxy)methyl]butan-1-ol",CCC(CO)(COCC=C)COCC=C,-1.7182484471,G1,1.7803,61.84180000000004,3.0,1.0,3.0,10.0,0.0,0.0,0.0,0.0,38.69,92.3957324330335,4.031291400763908
N-butylbutan-1-amine,CCCCNCCCC,-1.5039654481,G5,2.1762,42.68570000000001,1.0,1.0,1.0,6.0,0.0,0.0,0.0,0.0,12.03,58.84370801221385,2.595082706793886
"(1-methyl-1,2-ethanediyl)bis[oxy(methyl-2,1-ethanediyl)] diacrylate",CC(COCC(C)OC(=O)C=C)OCC(C)OC(=O)C=C,-1.8755690909,G1,1.6434999999999995,77.73500000000004,6.0,0.0,6.0,11.0,0.0,0.0,0.0,0.0,71.06,125.24645968312862,3.725988309618797
(2R)-2-methyloxirane,C[C@@H]1CO1,0.8380333836,G1,0.4051,15.414,1.0,0.0,1.0,0.0,0.0,1.0,1.0,1.0,12.53,25.57684933260041,2.171098317873574
2-(dibutylamino)ethan-1-ol,CCCCN(CCO)CCCC,-1.6367385713999998,G1,1.8809,53.34180000000004,2.0,1.0,2.0,8.0,0.0,0.0,0.0,0.0,23.47,76.57779747979839,3.396054517491409
sodium 3-[(dimethylcarbamothioyl)sulfanyl]propane-1-sulfonate,[Na+].CN(C)C(=S)SCCC[S]([O-])(=O)=O,0.1779035996,G1,-2.494599999999997,57.92420000000004,5.0,0.0,8.0,4.0,0.0,0.0,0.0,0.0,60.44,116.84772117533862,0.0
3-amino-4-methylbenzamide,Cc1ccc(cc1N)C(N)=O,-0.5767319197,G1,0.6761200000000003,44.109300000000005,2.0,2.0,3.0,1.0,1.0,0.0,0.0,1.0,69.11,65.00259084235937,3.1515496683060507
"1,3-thiazol-5-ylmethanol",OCc1scnc1,0.5257355357,G1,0.6354,28.0368,3.0,1.0,3.0,1.0,1.0,0.0,0.0,1.0,33.120000000000005,45.45059023744759,2.762608341443769
"(2S,4R)-1-acetyl-4-hydroxypyrrolidine-2-carboxylic acid",CC(=O)N1C[C@@H](O)C[C@H]1C([O-])=O,0.3449927217,G1,-2.281999999999999,36.8058,4.0,1.0,5.0,1.0,0.0,1.0,1.0,1.0,80.67000000000002,69.59441793536288,2.7198223880133643
Trimethylsulfoxonium iodide,[I-].C[S+](C)(C)=O,-0.7568844320999999,G3,-2.6206999999999985,25.82349999999999,1.0,0.0,3.0,0.0,0.0,0.0,0.0,0.0,17.07,56.95522523879605,0.0
"4-methylbenzene-1,3-diamine",Cc1ccc(N)cc1N,-0.5071845321,G1,1.15942,40.0038,2.0,2.0,2.0,0.0,1.0,0.0,0.0,1.0,52.04,54.476126627918994,3.171678030440915
diaminotoluene,Cc1cc(N)ccc1N,-0.5071845321,G3,1.15942,40.0038,2.0,2.0,2.0,0.0,1.0,0.0,0.0,1.0,52.04,54.476126627919,3.171678030440916
Cobalt sulfate heptahydrate,O.O.O.O.O.O.O.[Co++].[O-][S]([O-])(=O)=O,0.1271332296,G1,-7.113399999999995,35.7712,4.0,0.0,13.0,0.0,0.0,0.0,0.0,0.0,300.76,83.69149003209078,-2.8571428424107142e-09
sodium (dimethylcarbamothioyl)sulfanide,[Na+].CN(C)C([S-])=S,0.4168921924,G1,-2.6161999999999983,33.65,2.0,0.0,4.0,0.0,0.0,0.0,0.0,0.0,3.24,77.15621546014468,0.0
tris[4-(diethylamino)phenyl]methylium acetate,CCN(CC)c1ccc(cc1)[C+](c2ccc(cc2)N(CC)CC)c3ccc(cc3)N(CC)CC.CC([O-])=O,-0.1395608978999999,G1,6.000590000000006,161.23899999999966,5.0,0.0,5.0,12.0,3.0,0.0,0.0,3.0,49.85,230.2608112639533,1.1814700948742671e-06
ammonium chloride,[NH4+].[Cl-],0.8422541039,G3,-2.6198,5.9848,0.0,1.0,2.0,0.0,0.0,0.0,0.0,0.0,36.5,19.657321376399747,0.0
3-morpholin-4-yloxadiazol-3-ium-5-amine chloride,[Cl-].Nc1cn(n[o+]1)N2CCOCC2,0.1471983169,G1,-3.688399999999998,42.08240000000002,5.0,1.0,7.0,1.0,1.0,1.0,1.0,2.0,67.61,81.58524587980075,8.449997631834017e-07
(2Z)-4-butoxy-4-oxobut-2-enoic acid,CCCCOC(=O)\C=C/C(O)=O,-0.6677809794,G1,0.9705,42.64280000000001,3.0,1.0,4.0,5.0,0.0,0.0,0.0,0.0,63.6,70.83506597821197,3.5265840834033573
5-[(2-hydroxyethyl)amino]-2-methylphenol,Cc1ccc(NCCO)cc1O,-0.6550553282,G1,1.1048199999999997,48.41930000000003,3.0,3.0,3.0,3.0,1.0,0.0,0.0,1.0,52.49,71.66455915068684,2.686708199076686
(2S)-4-hydroxypyrrolidine-2-carboxylic acid,OC1CNC(C1)C(O)=O,0.4399221153,G1,-1.2061999999999995,30.050299999999996,3.0,3.0,4.0,1.0,0.0,1.0,1.0,1.0,69.56,52.493040119930576,2.3885666997264847
sodium 4-[(3-amino-4-methylbenzoyl)amino]benzenesulfonate,[Na+].Cc1ccc(cc1N)C(=O)Nc2ccc(cc2)[S]([O-])(=O)=O,-0.9492775868,G1,-1.2623799999999985,77.94980000000002,5.0,2.0,8.0,3.0,2.0,0.0,0.0,2.0,112.32,150.31169216777138,2.419998158509773e-06
ethyl 2-methylbut-3-enoate,CCOC(=O)C(C)C=C,-1.5763108556999998,G1,1.3716000000000002,35.99399999999999,2.0,0.0,2.0,3.0,0.0,0.0,0.0,0.0,26.3,55.514368011575584,3.583388067911339
N-methylhydrazinecarbothioamide,CNC(=S)NN,-0.465572855,G2,-1.0459999999999996,28.98080000000001,2.0,3.0,4.0,0.0,0.0,0.0,0.0,0.0,50.08,41.87272447389481,2.9881608821342693
potassium chloride,[Cl-].[K+],0.6777748798000001,G5,-5.992,0.0,0.0,0.0,2.0,0.0,0.0,0.0,0.0,0.0,0.0,62.44413570781571,0.0
naphthalene-2-sulfonic acid,O[S](=O)(=O)c1ccc2ccccc2c1,0.230443278,G4,2.0865,53.76260000000002,2.0,1.0,4.0,1.0,2.0,0.0,0.0,2.0,54.37,81.7417036612728,2.749372328291261
dimethyl 2-methylenesuccinate,COC(=O)CC(=C)C(=O)OC,-0.653770318,G1,0.2786999999999999,37.78900000000001,4.0,0.0,4.0,3.0,0.0,0.0,0.0,0.0,52.60000000000001,64.78943534112624,3.875936632522977
2-(2-phenoxyethoxy)ethan-1-ol,OCCOCCOc1ccccc1,-0.7165256146,G1,1.0743000000000005,49.84180000000004,3.0,1.0,3.0,6.0,1.0,0.0,0.0,1.0,38.69,77.91249578829317,2.0653801840299586
"7-hydroxy-3,7-dimethyloctanal",CC(CCCC(C)(C)O)CC=O,-0.6921365673000001,G1,2.1527000000000003,49.99380000000003,2.0,1.0,2.0,6.0,0.0,0.0,0.0,0.0,37.3,74.97948590963878,3.3646911205899195
N-propylpropan-1-amine,CCCNCCC,-0.461082427,G3,1.396,33.45169999999999,1.0,1.0,1.0,4.0,0.0,0.0,0.0,0.0,12.03,46.11382378342063,2.447472887876344
aniline,Nc1ccccc1,-0.4250168953,G3,1.2688,30.8544,1.0,1.0,1.0,0.0,1.0,0.0,0.0,1.0,26.02,42.77129381650968,3.0214653097240864
sodium hydrogen-5-sulphoisophthalate,[Na+].OC(=O)c1cc(cc(c1)[S]([O-])(=O)=O)C(O)=O,0.1093959475,G1,-3.008899999999999,48.323800000000006,5.0,2.0,9.0,3.0,1.0,0.0,0.0,1.0,131.8,118.11483468552233,2.559999044800369e-06
methyl(triphenyl)phosphonium bromide,[Br-].C[P+](c1ccccc1)(c2ccccc2)c3ccccc3,-0.0189230333,G1,0.6143000000000012,91.07200000000005,0.0,0.0,2.0,3.0,3.0,0.0,0.0,3.0,0.0,137.5078162188383,1.6133324306005218e-06
1-methylpyridinium chloride,[Cl-].C[n+]1ccccc1,0.4201828890999999,G1,-2.484899999999998,27.617999999999988,0.0,0.0,2.0,0.0,1.0,0.0,0.0,1.0,3.88,55.37905795398483,4.899999597500033e-07
2-ethyl-3-methylpyrazine,CCc1nccnc1C,0.4445107882999999,G1,1.34742,36.147,2.0,0.0,2.0,1.0,1.0,0.0,0.0,1.0,25.78,54.96552542457981,3.0065240073265844
hydroxyazanium chloride,[H+].[Cl-].NO,0.6895503556999999,G1,-3.5492,7.0859,2.0,2.0,3.0,0.0,0.0,0.0,0.0,0.0,46.25,26.1003634841646,-4.9999999750000005e-09
N-(prop-2-enamidomethyl)prop-2-enamide,C=CC(=O)NCNC(=O)C=C,-0.6552426764,G1,-0.4517000000000002,41.546400000000006,2.0,2.0,4.0,4.0,0.0,0.0,0.0,0.0,58.2,64.9724662171443,3.4121905349590214
L-sorbosonic acid,OC[C@H](O)[C@@H](O)[C@H](O)C(=O)C(O)=O,0.2373207652,G1,-3.2849,37.749,6.0,5.0,7.0,5.0,0.0,0.0,0.0,0.0,135.29000000000002,72.85817456088017,4.327344284336427
Methyl morpholine oxide,C[N+]1([O-])CCOCC1,0.4563099285,G1,-0.0390000000000001,30.104399999999984,2.0,0.0,3.0,0.0,0.0,1.0,1.0,1.0,32.29,49.02481096986632,2.327882879407043
tris(2-hydroxyethanaminium) citrate,[NH3+]CCO.[NH3+]CCO.[NH3+]CCO.OC(CC([O-])=O)(CC([O-])=O)C([O-])=O,-0.0501601163999999,G1,-10.590800000000009,73.7275,10.0,7.0,13.0,8.0,0.0,0.0,0.0,0.0,284.23,143.83498240332148,-1.4999999707265638e-07
sodium 2-[(2-aminoethyl)amino]ethanesulfonate,[Na+].NCCNCC[S]([O-])(=O)=O,0.2445359542,G1,-4.9160999999999975,36.48830000000001,5.0,2.0,7.0,5.0,0.0,0.0,0.0,0.0,95.25,88.76586588439268,0.0
potassium 3-(acryloyloxy)propane-1-sulfonate,[K+].[O-][S](=O)(=O)CCCOC(=O)C=C,1.1562683245,G1,-3.345099999999997,40.33720000000001,5.0,0.0,7.0,5.0,0.0,0.0,0.0,0.0,83.5,119.7006266025822,0.0
4-fluoroaniline,Nc1ccc(F)cc1,-0.5272743845000001,G1,1.4079,30.8124,1.0,1.0,2.0,0.0,1.0,0.0,0.0,1.0,26.02,46.93682921943592,3.0324555320336755
3-acetyloxolan-2-one,CC(=O)C1CCOC1=O,0.3975093207,G3,0.1385,29.746999999999986,3.0,0.0,3.0,1.0,0.0,1.0,1.0,1.0,43.370000000000005,52.99471987587776,2.597596850254139
"sodium 3,5-bis(methoxycarbonyl)benzene-1-sulfonate",[Na+].COC(=O)c1cc(cc(c1)[S]([O-])(=O)=O)C(=O)OC,-0.9664819924,G1,-2.832099999999998,57.08420000000002,7.0,0.0,9.0,3.0,1.0,0.0,0.0,1.0,109.8,131.48334186893726,3.239998428600798e-06
sodium chloride,[Na+].[Cl-],0.7343267611,G1,-5.992,0.0,0.0,0.0,2.0,0.0,0.0,0.0,0.0,0.0,0.0,41.93497063516508,0.0
dilithium pentanedioate,[Li+].[Li+].[O-]C(=O)CCCC([O-])=O,0.3427540765999999,G1,-8.335500000000003,23.86499999999999,4.0,0.0,6.0,4.0,0.0,0.0,0.0,0.0,80.25999999999999,88.7056622417604,-3.199999663000036e-07
"4-hydroxy-2,5-dimethyl-2,3-dihydrofuran-3-one",CC1OC(=C(O)C1=O)C,0.3906698962,G1,0.7636999999999998,30.882799999999992,3.0,1.0,3.0,0.0,0.0,0.0,1.0,1.0,46.53,52.93782849584576,2.8730079388861545
5-benzoyl-4-hydroxy-2-methoxybenzene-1-sulfonic acid,[Na+].COc1cc(O)c(cc1[S]([O-])(=O)=O)C(=O)c2ccccc2,-0.022384851,G1,-1.4600999999999982,72.49650000000003,6.0,1.0,8.0,4.0,2.0,0.0,0.0,2.0,103.73,149.3297182688534,2.4199984602760167e-06
"2,2,4-trimethylpentane-1,3-diol",CC(C)C(O)C(C)(C)CO,-0.6667259261999999,G3,1.0218,41.7116,2.0,2.0,2.0,3.0,0.0,0.0,0.0,0.0,40.46,62.88231333299781,4.034118241181464
2-Ethylhexyl (2S)-2-hydroxypropanoate,CCCCC(CC)COC(=O)[C@H](C)O,-2.6735257097,G1,2.1268000000000007,55.94580000000005,3.0,1.0,3.0,7.0,0.0,0.0,0.0,0.0,46.53,86.45797325354226,3.661036491276099
cyclopentanone,O=C1CCCC1,0.5536775573,G1,1.1295,23.47499999999999,1.0,0.0,1.0,0.0,0.0,1.0,1.0,1.0,17.07,37.35471043193051,2.3673518510178746
N-methylmethanaminium chloride,[H+].[Cl-].CNC,1.5657185919,G1,-3.0478999999999985,16.0957,1.0,1.0,2.0,0.0,0.0,0.0,0.0,0.0,12.03,34.29194694787915,-1.9999999750000003e-08
hydrogen sulfide; manganese,S.[Mn],-4.1599117564,G1,0.1103,10.381,0.0,0.0,2.0,0.0,0.0,0.0,0.0,0.0,0.0,31.156952487091907,0.0
methyl formate,COC=O,0.6985937788,G3,-0.2108000000000001,13.073,2.0,0.0,2.0,1.0,0.0,0.0,0.0,0.0,26.3,24.379260471776803,2.2968352619191386
"trisodium 8-hydroxypyrene-1,3,6-trisulfonate",[Na+].[Na+].[Na+].Oc1cc(c2ccc3c4c(ccc1c24)c(cc3[S]([O-])(=O)=O)[S]([O-])(=O)=O)[S]([O-])(=O)=O,-0.242535631,G1,-7.986100000000003,95.70040000000002,10.0,1.0,16.0,3.0,4.0,0.0,0.0,4.0,191.83,248.375762245292,1.7066661792001451e-06
"4-methyl-3a,4,7,7a-tetrahydro-2-benzofuran-1,3-dione",CC1C=CCC2C1C(=O)OC2=O,-0.7362684615999999,G1,0.8982,41.000000000000014,3.0,0.0,3.0,0.0,0.0,1.0,2.0,2.0,43.370000000000005,70.3941120333541,2.323734961760993
N-isopropyl-2-methylacrylamide,CC(C)NC(=O)C(C)=C,-0.6201428843,G1,1.0871,38.0927,1.0,1.0,2.0,2.0,0.0,0.0,0.0,0.0,29.1,55.950684965676736,3.6474246915365
2-(2-ethoxyethoxy)-2-methylpropane,CCOCCOC(C)(C)C,-0.6879152253,G3,1.838,42.198000000000015,2.0,0.0,2.0,4.0,0.0,0.0,0.0,0.0,18.46,63.52093628761955,3.0437584089734577
3-methoxybutyl acetate,COC(C)CCOC(C)=O,-0.6877845281999999,G5,0.9745,37.721,3.0,0.0,3.0,4.0,0.0,0.0,0.0,0.0,35.53,61.31751627326672,3.110465475982731
"Sulfuric acid, mono-C12-18-alkyl esters, sodium salts",[Na+].CCCCCCCCCCCCCCCO[S]([O-])(=O)=O,-1.042005529,G3,1.5583999999999996,81.34420000000007,4.0,0.0,6.0,15.0,0.0,0.0,0.0,0.0,66.43,153.2130253676996,0.0
carbamimidoylsulfinic acid,NC(=N)[S](O)=O,-0.5567928158,G1,-0.8984299999999998,22.6853,2.0,3.0,5.0,0.0,0.0,0.0,0.0,0.0,87.17000000000002,37.14198455593701,3.5677034550432034
tert-butyl 2-methylpropaneperoxoate,CC(C)C(=O)OOC(C)(C)C,-1.6070025668,G1,1.9157,41.768000000000015,3.0,0.0,3.0,2.0,0.0,0.0,0.0,0.0,35.53,67.6117537034016,3.636616381160675
"(2,2-dimethoxyethyl)benzene",COC(Cc1ccccc1)OC,-1.6296186709,G1,1.848,47.95200000000004,2.0,0.0,2.0,4.0,1.0,0.0,0.0,1.0,18.46,73.11826203609715,2.508062494967292
"1,3,5-triazine-2,4,6-triamine phosphate",Nc1nc(N)nc(N)n1.O[P](O)(O)=O,-1.7594101934,G3,-2.3104,47.3271,7.0,6.0,11.0,0.0,1.0,0.0,0.0,1.0,194.48999999999995,78.048162237967,2.917777713588273e-07
"2H,4H,4aH,5H,9bH-indeno[1,2-d][1,3]dioxine",C1OCC2Cc3ccccc3C2O1,-1.6560932729,G1,1.9043,48.281000000000034,2.0,0.0,2.0,0.0,1.0,1.0,2.0,3.0,18.46,77.47154184343529,2.0078005608417397
"3-[(4-hydroxy-3-methoxyphenyl)methyl]pentane-2,4-dione",COc1cc(CC(C(C)=O)C(C)=O)ccc1O,-1.7863659491,G1,1.7374999999999998,63.21480000000004,4.0,1.0,4.0,5.0,1.0,0.0,0.0,1.0,63.60000000000001,100.21682110206363,2.9378566391049
"(2R,3R,4R,5S)-2-(hydroxymethyl)piperidine-3,4,5-triol",OC[C@H]1NC[C@H](O)[C@@H](O)[C@@H]1O,0.4043520428,G1,-2.9667999999999988,36.8969,5.0,5.0,5.0,1.0,0.0,1.0,1.0,1.0,92.95,64.28492763867544,2.516424270605089
diethyl chloromalonate,CCOC(=O)C(Cl)C(=O)OCC,-1.7209723549,G1,0.7199999999999999,42.907000000000025,4.0,0.0,5.0,4.0,0.0,0.0,0.0,0.0,52.60000000000001,75.78230460019216,3.91026523675175
sodium 6-amino-4-hydroxy-5-[(E)-2-[2-(trifluoromethyl)phenyl]diazen-1-yl]naphthalene-2-sulfonate,[Na+].[O-][S](=O)(=O)C1=CC(=O)C2=C(NNc3ccccc3C(F)(F)F)C(=N)C=CC2=C1,-2.0686300615,G1,-0.5922299999999978,92.96530000000004,7.0,3.0,12.0,4.0,1.0,0.0,2.0,3.0,122.18,185.13106727035512,2.999996485170901e-06
2-(2-{2-[(2-methylprop-2-enoyl)oxy]ethoxy}ethoxy)ethyl 2-methylprop-2-enoate,CC(=C)C(=O)OCCOCCOCCOC(=O)C(C)=C,-1.9005552518,G1,1.2582,73.18400000000004,6.0,0.0,6.0,11.0,0.0,0.0,0.0,0.0,71.06,118.881517568732,3.2524378581178746
4-[(4-amino-3-methylcyclohexyl)methyl]-2-methylcyclohexan-1-amine,CC1CC(CCC1N)CC2CCC(N)C(C)C2,-1.8210383613,G5,2.903500000000001,73.57780000000005,2.0,2.0,2.0,2.0,0.0,2.0,2.0,2.0,52.04,106.51655971634902,1.7754724185565798
"2,5-dimethylphenol",Cc1ccc(C)c(O)c1,-1.5375827569,G3,2.00904,37.5808,1.0,1.0,1.0,0.0,1.0,0.0,0.0,1.0,20.23,54.95552110048619,3.171678030440916
"{[(2R,3S,4R,5R)-5-(6-amino-9H-purin-9-yl)-3,4-dihydroxyoxolan-2-yl]methoxy}phosphonic acid",Nc1ncnc2n(cnc12)C3OC(CO[P](O)(O)=O)C(O)C3O,-1.9953026194,G3,-1.8630000000000004,73.65509999999999,10.0,5.0,13.0,4.0,2.0,1.0,1.0,3.0,186.07,128.30354975942075,1.8511475274909783
"1,1,2-trichloroethane",ClCC(Cl)Cl,-1.5811040628,G3,2.0289,26.213999999999995,0.0,0.0,3.0,1.0,0.0,0.0,0.0,0.0,0.0,46.013991822871176,2.5395388613593908
"2,3,5-trimethylbenzene-1,4-diol",Cc1cc(O)c(C)c(C)c1O,-1.6383266335,G1,2.0230600000000005,43.98260000000002,2.0,2.0,2.0,0.0,1.0,0.0,0.0,1.0,40.46,66.11469696707881,3.455546483817784
[2-(4-aminobenzenesulfonyl)ethoxy]sulfonic acid,Nc1ccc(cc1)[S](=O)(=O)CCO[S](O)(=O)=O,-1.9051186702,G1,-0.1380999999999997,60.407800000000016,6.0,2.0,9.0,5.0,1.0,0.0,0.0,1.0,123.76,99.077761542695,2.728446449304219
"tris(prop-2-en-1-yl)-1,3,5-triazinane-2,4,6-trione",C=CCN1C(=O)N(CC=C)C(=O)N(CC=C)C1=O,-1.8526019693,G1,-0.2703000000000004,69.813,6.0,0.0,6.0,6.0,1.0,0.0,0.0,1.0,66.0,103.42049775527047,3.7427964834165097
methyl 3-aminopyrazine-2-carboxylate,COC(=O)c1nccnc1N,-1.6422660516999998,G1,-0.1545999999999999,37.7839,5.0,1.0,5.0,1.0,1.0,0.0,0.0,1.0,78.1,63.21554133674656,3.032662155800657
"1,3,5-triazine-2,4,6-triamine",Nc1nc(N)nc(N)n1,-1.5592150485,G5,-1.3818,33.0642,6.0,3.0,6.0,0.0,1.0,0.0,0.0,1.0,116.73,51.11001915337465,3.165670309917317
1-nitroguanidine,NC(N)=N[N+]([O-])=O,-1.4858424644,G5,-1.5484999999999998,22.80420000000001,2.0,2.0,6.0,1.0,0.0,0.0,0.0,0.0,107.54000000000002,38.93746665044988,3.679228031962392
2-(trifluoromethyl)aniline,Nc1ccccc1C(F)(F)F,-1.6756867087,G1,2.2876000000000003,35.856400000000015,1.0,1.0,4.0,0.0,1.0,0.0,0.0,1.0,26.02,61.63284213968499,3.1411091905317954
1-[4-(4-hydroxyphenyl)piperazin-1-yl]ethan-1-one,CC(=O)N1CCN(CC1)c2ccc(O)cc2,-1.817914488,G1,1.0606999999999998,62.57380000000004,3.0,1.0,4.0,1.0,1.0,1.0,1.0,2.0,43.78,95.09064784499392,1.9857501866524585
"4-(oxiran-2-ylmethoxy)-N,N-bis(oxiran-2-ylmethyl)aniline",C1OC1COc2ccc(cc2)N(CC3CO3)CC4CO4,-1.9192347247,G1,1.0681999999999998,73.37000000000005,5.0,0.0,5.0,8.0,1.0,3.0,3.0,4.0,50.06,117.91240327670964,1.3760025438943335
1-aminoguanidine; carbonic acid,NN=C(N)N.OC(O)=O,-1.6153792849000002,G5,-1.6441,30.650800000000007,3.0,5.0,7.0,0.0,0.0,0.0,0.0,0.0,147.95,50.74514449732442,0.0
methyl(naphthalen-1-ylmethyl)amine,CNCc1cccc2ccccc12,-1.7150988877000002,G1,2.5592000000000006,56.71170000000004,1.0,1.0,1.0,2.0,2.0,0.0,0.0,2.0,12.03,78.39281406363344,2.6138711904545664
N-(2-methoxyphenyl)-3-oxobutanamide,COc1ccccc1NC(=O)CC(C)=O,-1.8059055211,G1,1.6127999999999998,56.92170000000002,3.0,1.0,4.0,4.0,1.0,0.0,0.0,1.0,55.4,88.24256530468247,2.711793612142758
2-(propan-2-yloxy)propane,CC(C)OC(C)C,-1.5165927583,G5,1.8198,31.356999999999974,1.0,0.0,1.0,2.0,0.0,0.0,0.0,0.0,9.23,45.677506829319455,2.9532231745612925
2-bromopropane,CC(C)Br,-1.598518701,G5,1.7897,24.06299999999999,0.0,0.0,1.0,0.0,0.0,0.0,0.0,0.0,0.0,35.33668286226413,2.3237900077244498
4-methylbenzene-1-sulfonamide,Cc1ccc(cc1)[S](N)(=O)=O,-1.7421953353,G1,0.6424200000000001,42.55220000000001,2.0,1.0,4.0,1.0,1.0,0.0,0.0,1.0,60.16,65.89701182332136,3.2015159310664942
(ethylsulfanyl)ethane,CCSCC,-1.4680248268,G3,1.7594,28.672999999999988,1.0,0.0,1.0,2.0,0.0,0.0,0.0,0.0,0.0,37.95718739638461,2.19060968716425
6-methylhept-5-en-2-one,CC(C)=CCCC(C)=O,-1.6210489706,G1,2.3218000000000005,39.346,1.0,0.0,1.0,3.0,0.0,0.0,0.0,0.0,17.07,56.765764896465306,3.3050429936972363
1-[2-(2-butoxyethoxy)ethoxy]butane,CCCCOCCOCCOCCCC,-1.862006084,G5,2.636400000000001,62.27300000000006,3.0,0.0,3.0,12.0,0.0,0.0,0.0,0.0,27.69,94.09424997471288,2.8079257388805243
2-isopropenyl-5-methylcyclohexanol,CC1CCC(C(O)C1)C(C)=C,-1.7111123645,G1,2.3596000000000004,47.32580000000002,1.0,1.0,1.0,1.0,0.0,1.0,1.0,1.0,20.23,69.12252962388155,2.5027556956841788
2-methoxy-5-methylaniline,COc1ccc(C)cc1N,-1.6601758755,G1,1.58582,42.14340000000001,2.0,1.0,2.0,1.0,1.0,0.0,0.0,1.0,35.25,60.61472327480977,3.06998271499884
"2-phenyl-4,5-dihydro-1H-imidazole; benzene-1,2,4,5-tetracarboxylic acid",OC(=O)c1cc(C(O)=O)c(cc1C(O)=O)C(O)=O.C2CN=C(N2)c3ccccc3,-2.1253109845,G1,1.5157999999999996,100.1279,6.0,5.0,10.0,5.0,2.0,0.0,1.0,3.0,173.59,163.31130020476454,2.30303022758303e-07
4-chloroaniline,Nc1ccc(Cl)cc1,-1.628640918,G5,1.9222,35.86440000000002,1.0,1.0,2.0,0.0,1.0,0.0,0.0,1.0,26.02,53.07456004339135,3.0324555320336755
5-methylheptan-3-one,CCC(C)CC(=O)CC,-1.630817582,G1,2.401700000000001,39.37,1.0,0.0,1.0,4.0,0.0,0.0,0.0,0.0,17.07,57.455367928649565,3.3430002458353805
aluminum tris(4-oxopent-2-en-2-olate),[Al+3].CC([O-])=CC(C)=O.CC([O-])=CC(C)=O.CC([O-])=CC(C)=O,-2.0338377464,G1,-0.862299999999999,79.06800000000003,6.0,0.0,7.0,3.0,0.0,0.0,0.0,0.0,120.39,141.53207438859383,-1.07999999274e-07
chlorodifluoromethane,FC(F)Cl,-1.4597341592,G3,1.4478,11.857,0.0,0.0,3.0,0.0,0.0,0.0,0.0,0.0,0.0,27.37358806056369,2.3237900077244498
"but-2-yne-1,4-diol",OCC#CCO,1.5363390032,G5,-1.0256,21.947599999999994,2.0,2.0,2.0,0.0,0.0,0.0,0.0,0.0,40.46,36.42177026727067,2.8986676180251862
"sodium 3-[2-(1,5-dioxonaphthalen-2-yl)hydrazinyl]-4-hydroxybenzenesulfonate",[Na+].Oc1ccc(cc1NNC2=CC=C3C(=O)C=CC=C3C2=O)[S]([O-])(=O)=O,-0.9011960035,G1,-2.324899999999998,86.2314,8.0,3.0,10.0,4.0,1.0,0.0,2.0,3.0,135.63,170.53992380015478,2.4299975304025683e-06
"N,N-bis(carboxymethyl)-L-glutamic acid",OC(=O)CCC(N(CC(O)=O)CC(O)=O)C(O)=O,0.0436038038999999,G3,-1.2243999999999988,55.13820000000001,5.0,4.0,9.0,9.0,0.0,0.0,0.0,0.0,152.44,101.24164502216492,4.828573742534609
isopropenyl acetate,CC(=C)OC(C)=O,-0.5277513782,G1,1.0831,26.57999999999999,2.0,0.0,2.0,1.0,0.0,0.0,0.0,0.0,26.3,42.78448378278237,3.318019590380522
"1,2,3,6-tetrahydrophthalic anhydride",O=C1OC(=O)C2CC=CCC12,-0.7139217719,G1,0.6521999999999999,36.453,3.0,0.0,3.0,0.0,0.0,1.0,2.0,2.0,43.370000000000005,64.02916991895749,2.275089056121243
"3,5-dimethyl-1H-pyrazole",Cc1[nH]nc(C)c1,-0.5204744976,G1,1.02654,28.061699999999995,1.0,1.0,2.0,0.0,1.0,0.0,0.0,1.0,28.68,42.55854931865572,3.0420027674072885
"(8R,9S,10R,14S)-13-ethyl-1,2,6,7,8,9,10,11,12,14,15,16-dodecahydrocyclopenta[a]phenanthrene-3,17-dione",CCC12CC[C@H]3[C@@H](CCC4=CC(=O)CC[C@H]34)[C@@H]1CCC2=O,-3.7327198893,G1,4.087400000000003,81.71700000000004,2.0,0.0,2.0,1.0,0.0,3.0,4.0,4.0,34.14,126.91832564075489,1.6501278527098846
2-amino-3-(phosphonooxy)propanoic acid,N[C@@H](CO[P](O)(O)=O)C(O)=O,-0.8149408723,G1,-1.4924000000000002,33.607299999999995,4.0,4.0,8.0,4.0,0.0,0.0,0.0,0.0,130.08,62.01640521424924,3.720984563822843