Name,SMILES,Solubility,Group,MolLogP,MolMR,NumHAcceptors,NumHDonors,NumHeteroatoms,NumRotatableBonds,NumAromaticRings,NumSaturatedRings,NumAliphaticRings,RingCount,TPSA,LabuteASA,BalabanJ
"4-[(E)-2-(1-butyl-5-cyano-2-hydroxy-4-methyl-6-oxo-1,6-dihydropyridin-3-yl)diazen-1-yl]-N-(2-ethylhexyl)benzene-1-sulfonamide",CCCCC(CC)CN[S](=O)(=O)c1ccc(cc1)N=NC2=C(O)N(CCCC)C(=O)C(=C2C)C#N,-8.797313426799999,G1,5.444200000000005,135.83929999999998,8.0,2.0,10.0,13.0,2.0,0.0,0.0,2.0,136.91,207.1330578488761,2.25262949420969
stannanethione,S=[SnH2],-8.4059550501,G1,-0.268,16.134999999999998,1.0,0.0,2.0,0.0,0.0,0.0,0.0,0.0,0.0,30.108170370097348,2.0
dibismuth(3+) ion trisulfanediide,[S--].[S--].[S--].[Bi+3].[Bi+3],-9.0983152748,G1,-0.7688,33.602999999999994,0.0,0.0,5.0,0.0,0.0,0.0,0.0,0.0,0.0,91.4435563059877,-0.0
"1,1,2,2,3,3,3-heptafluoro-N,N-bis(heptafluoropropyl)propan-1-amine",FC(F)(F)C(F)(F)C(F)(F)N(C(F)(F)C(F)(F)C(F)(F)F)C(F)(F)C(F)(F)C(F)(F)F,-9.1359660934,G1,6.659600000000003,49.68599999999999,1.0,0.0,22.0,6.0,0.0,0.0,0.0,0.0,3.24,152.89486507465668,7.517309656819621
"2-[(1-amino-4-hydroxy-9,10-dioxo-9,10-dihydroanthracen-2-yl)oxy]ethyl ethyl carbonate",CCOC(=O)OCCOc1cc(O)c2C(=O)c3ccccc3C(=O)c2c1N,-9.2195295624,G1,2.3017000000000003,94.29520000000004,8.0,2.0,8.0,5.0,2.0,0.0,1.0,3.0,125.15,153.99658741066872,1.861691785705914
tetratrimethylsilyl silicate,C[Si](C)(C)O[Si](O[Si](C)(C)C)(O[Si](C)(C)C)O[Si](C)(C)C,-9.4071737246,G1,4.828000000000005,103.47800000000008,4.0,0.0,9.0,8.0,0.0,0.0,0.0,0.0,36.92,137.0993596623713,5.695722146514495
iridium(3+),[Ir],-9.9827617991,G1,-0.0025,0.0,0.0,0.0,1.0,0.0,0.0,0.0,0.0,0.0,0.0,20.846792035131934,0.0
decyl 2-ethylhexanoate,CCCCCCCCCCOC(=O)C(CC)CCCC,-8.1939864578,G1,5.886700000000007,86.87500000000007,2.0,0.0,2.0,14.0,0.0,0.0,0.0,0.0,26.3,126.21833430212256,3.4142312020576995
"3,5,5-trimethylhexyl 3,5,5-trimethylhexanoate",CC(CCOC(=O)CC(C)CC(C)(C)C)CC(C)(C)C,-8.2779665867,G1,5.454400000000006,86.66500000000008,2.0,0.0,2.0,7.0,0.0,0.0,0.0,0.0,26.3,126.21833430212251,3.8379297609998417
tetradecyl octadecanoate,CCCCCCCCCCCCCCCCCC(=O)OCCCCCCCCCCCCCC,-8.983050454099999,G1,11.492199999999986,151.58299999999983,2.0,0.0,2.0,29.0,0.0,0.0,0.0,0.0,26.3,215.32752390367517,3.136019616055739
"2,5,7,10,11,14-hexaoxa-1,6-distibabicyclo[4.4.4]tetradecane",C1CO[Sb]2OCCO[Sb](O1)OCCO2,-9.0249738719,G1,-0.917,47.22000000000003,6.0,0.0,8.0,0.0,0.0,3.0,3.0,3.0,55.38000000000001,100.02012309984376,1.9280860863982685
"1-phenyldecane-1,3-dione",CCCCCCCC(=O)CC(=O)c1ccccc1,-5.8836966949,G5,4.189000000000004,73.77250000000005,2.0,0.0,2.0,9.0,1.0,0.0,0.0,1.0,34.14,109.40386846355062,2.219603799293727
oxo[(oxochromio)oxy]chromium; oxo[(oxoferrio)oxy]iron; oxo[(oxomanganio)oxy]manganese,O=[Cr]O[Cr]=O.O=[Mn]O[Mn]=O.O=[Fe]O[Fe]=O,-8.972710915599999,G1,-0.933,7.373999999999999,9.0,0.0,15.0,6.0,0.0,0.0,0.0,0.0,130.11,121.97984552498032,-1.4399999911800004e-07
silicon,[Si],-5.6631600565,G4,-0.3808,5.754,0.0,0.0,1.0,0.0,0.0,0.0,0.0,0.0,0.0,12.14199463402282,0.0
"6-chloro-2-(6-chloro-4-methyl-3-oxo-2,3-dihydro-1-benzothiophen-2-ylidene)-4-methyl-2,3-dihydro-1-benzothiophen-3-one",Cc1cc(Cl)cc2SC(/C(=O)c12)=C/3Sc4cc(Cl)cc(C)c4C3=O,-7.9319837821,G1,6.098840000000004,99.77900000000002,4.0,0.0,6.0,0.0,2.0,0.0,2.0,4.0,34.14,157.15268137727932,1.8610157994777292
1-[(E)-2-(4-methoxy-2-nitrophenyl)diazen-1-yl]naphthalen-2-ol,COc1ccc(N\N=C2/C(=O)C=Cc3ccccc23)c(c1)[N+]([O-])=O,-7.9911025111,G1,3.015500000000001,90.29110000000004,6.0,1.0,7.0,4.0,2.0,0.0,1.0,3.0,93.82999999999998,136.96113745358414,1.9781076436876752
2-{[2-hydroxy-5-methyl-3-(1-methylcyclohexyl)phenyl]methyl}-4-methyl-6-(1-methylcyclohexyl)phenol,Cc1cc(Cc2cc(C)cc(c2O)C3(C)CCCCC3)c(O)c(c1)C4(C)CCCCC4,-8.146786216599999,G1,7.749040000000008,129.36760000000004,2.0,2.0,2.0,4.0,2.0,2.0,2.0,4.0,40.46,188.2693184676369,1.7298080791677568
disulfanylidenemolybdenum,S.[Mo],-5.8129901866,G1,0.1103,10.381,0.0,0.0,2.0,0.0,0.0,0.0,0.0,0.0,0.0,34.949420306652435,0.0
"4,10-dibromonaphtho[7,8,1,2,3-nopqr]tetraphene-6,12-dione",Brc1cc2C(=O)c3cccc4c(Br)cc5C(=O)c6cccc1c6c2c5c34,-7.6331990421,G1,5.963000000000002,114.586,2.0,0.0,4.0,0.0,4.0,0.0,2.0,6.0,34.14,163.2103695042788,2.192583369832332
"5-[(E)-2-(6-methyl-2-oxo-2,3-dihydro-1H-1,3-benzodiazol-5-yl)diazen-1-yl]-1,3-diazinane-2,4,6-trione",CC1=CC2=NC(=O)N=C2C=C1NNC3C(=O)NC(=O)NC3=O,-6.4891402338,G1,-1.9810799999999995,71.1148,6.0,4.0,10.0,3.0,1.0,1.0,2.0,3.0,141.11999999999998,122.21571162538064,1.795529858704868
"4-methyl-2,6-bis[(4-methylphenyl)amino]-5-{2-[2-(trifluoromethyl)phenyl]diazen-1-yl}pyridine-3-carbonitrile",Cc1ccc(Nc2nc(Nc3ccc(C)cc3)c(C#N)c(C)c2N=Nc4ccccc4C(F)(F)F)cc1,-7.7171571443,G1,8.799940000000001,138.23239999999987,6.0,2.0,9.0,6.0,4.0,0.0,0.0,4.0,85.46,212.08273239257124,1.8381160888589392
C.i. Pigment Red 179,CN1C(=O)c2ccc3c4ccc5C(=O)N(C)C(=O)c6ccc(c7ccc(C1=O)c2c37)c4c56,-7.7185099927,G5,3.0370000000000017,128.05800000000002,6.0,0.0,6.0,0.0,7.0,0.0,0.0,7.0,78.14,177.7146516342313,1.9131526012910405
"2-(3-Methoxypropyl)-9(or 10)-methylbenzimidazo(2,1-b)benzo(lmn)(3,8)phenanthroline-1,3,6(2H)-trione",COCCCN1C(=O)c2ccc3C(=O)n4c5ccc(C)cc5nc4c6ccc(C1=O)c2c36,-6.7715099068,G1,3.049720000000001,125.61800000000004,7.0,0.0,7.0,4.0,6.0,0.0,0.0,6.0,82.66999999999999,180.3273360718953,1.809737545467193
"Fatty acids, C5-9, tetraesters with pentaerythritol",CCCCCCCOCC(COCCCCCCC)(COCCCCCCC)COCCCCCCC,-7.94522478,G1,9.9208,160.74499999999972,4.0,0.0,4.0,32.0,0.0,0.0,0.0,0.0,36.92,232.8715796065486,4.782099996113904
zirconium dioxide,O=[Zr]=O,-6.350325563999999,G1,-0.2401,1.373,2.0,0.0,3.0,0.0,0.0,0.0,0.0,0.0,34.14,29.29254422674284,3.2659863237109046
"N-{5-[bis(prop-2-en-1-yl)amino]-2-[(E)-2-(2-bromo-4,6-dinitrophenyl)diazen-1-yl]-4-methoxyphenyl}acetamide",COc1cc(N=Nc2c(Br)cc(cc2[N+]([O-])=O)[N+]([O-])=O)c(NC(C)=O)cc1N(CC=C)CC=C,-7.0093328393,G1,5.826300000000005,131.5315,9.0,1.0,13.0,11.0,2.0,0.0,0.0,2.0,152.57000000000002,202.59881036925407,2.6798155909313164
"2,2'-biindole-3,3'(1H,1'H)-dione",O=C1\C(Nc2ccccc12)=C/3Nc4ccccc4C3=O,-6.7197753001,G1,2.8148,75.81640000000003,4.0,2.0,4.0,0.0,2.0,0.0,2.0,4.0,58.2,114.66976901120834,1.8457036734108805
propan-2-yl tetradecanoate,CCCCCCCCCCCCCC(=O)OC(C)C,-6.733128222,G1,5.639100000000005,82.30600000000007,2.0,0.0,2.0,13.0,0.0,0.0,0.0,0.0,26.3,119.85339218772594,3.0834103763587524
bis(nonylphenyl)amine,CCCCCCCCCc1cccc(Nc2cccc(CCCCCCCCC)c2)c1,-7.9260469847,G1,10.016399999999996,139.56069999999994,1.0,1.0,1.0,18.0,2.0,0.0,0.0,2.0,12.03,192.607317568308,1.7061237680957628
"ethyl 2-cyano-3,3-diphenylprop-2-enoate",CCOC(=O)C(C#N)=C(c1ccccc1)c2ccccc2,-7.7440158853,G1,3.5751800000000022,81.15200000000004,3.0,0.0,3.0,4.0,2.0,0.0,0.0,2.0,50.09,123.6561939907758,2.662526257390072
methyl 3-[[4-(2-bromo-6-chloro-4-nitrophenyl)diazenylphenyl]-(3-methoxy-3-oxopropyl)amino]propanoate,COC(=O)CCN(CCC(=O)OC)c1ccc(cc1)N=Nc2c(Cl)cc(cc2Br)[N+]([O-])=O,-7.1002216252,G1,5.358700000000004,121.90340000000003,9.0,0.0,12.0,10.0,2.0,0.0,0.0,2.0,123.70000000000002,196.98856996955044,2.1708756643147806
4-[[2-methoxy-4-[(4-nitrophenyl)azo]phenyl]azo]phenol,COc1cc(ccc1NN=C2C=CC(=O)C=C2)N=Nc3ccc(cc3)[N+]([O-])=O,-6.9639720065,G1,4.481800000000003,104.6111,8.0,1.0,9.0,6.0,2.0,0.0,1.0,3.0,118.55,159.44819649468218,1.7250682858296624
"2-[N-(2-cyanoethyl)-4-[(2,6-dichloro-4-nitrophenyl)azo]anilino]ethyl acetate",CC(=O)OCCN(CCC#N)c1ccc(cc1)N=Nc2c(Cl)cc(cc2Cl)[N+]([O-])=O,-7.0514245951,G1,5.600180000000004,112.81040000000002,8.0,0.0,11.0,9.0,2.0,0.0,0.0,2.0,121.19,182.17685882831225,2.145379685508491
2-tert-butyl-4-[1-(5-tert-butyl-4-hydroxy-2-methylphenyl)butyl]-5-methylphenol,CCCC(c1cc(c(O)cc1C)C(C)(C)C)c2cc(c(O)cc2C)C(C)(C)C,-7.9806713528,G1,7.241640000000008,119.83860000000008,2.0,2.0,2.0,4.0,2.0,0.0,0.0,2.0,40.46,171.18615443150557,2.7452745469500632
Tin,[Sn],-7.472430972100001,G1,-0.3808,5.754,0.0,0.0,1.0,0.0,0.0,0.0,0.0,0.0,0.0,24.44696061217174,0.0
"1,4-bis(2-ethylhexyl) (2Z)-but-2-enedioate",CCCCC(CC)COC(=O)\C=C/C(=O)OCC(CC)CCCC,-6.9758197173,G1,5.061800000000005,97.67000000000009,4.0,0.0,4.0,14.0,0.0,0.0,0.0,0.0,52.60000000000001,147.53368282828214,4.039404235710348
"N-{2-[(E)-2-(2-chloro-4,6-dinitrophenyl)diazen-1-yl]-5-(diethylamino)phenyl}acetamide",CCN(CC)c1ccc(N=Nc2c(Cl)cc(cc2[N+]([O-])=O)[N+]([O-])=O)c(NC(C)=O)c1,-7.1158852536,G1,5.376400000000004,113.24350000000008,8.0,1.0,12.0,8.0,2.0,0.0,0.0,2.0,143.34,176.20536348216618,2.54386569895491
"sodium; methanolate; 2-methylbenzene-1,3-diamine; methyl 2,3,4,5-tetrachloro-6-cyanobenzoate",[Na+].C[O-].COC(=O)c1c(Cl)c(Cl)c(Cl)c(Cl)c1C#N.Cc2c(N)cccc2N,-7.1716670448,G1,1.0984,108.4643,6.0,2.0,11.0,1.0,2.0,0.0,0.0,2.0,125.19,205.092996892082,0.0
2-[-N-(2-cyanoethyl)-4-[(p-nitrophenyl)azo]anilino]ethyl benzoate,[O-][N+](=O)c1ccc(cc1)N=Nc2ccc(cc2)N(CCOC(=O)c3ccccc3)CCC#N,-7.1697361359,G1,5.587280000000005,122.88190000000004,8.0,0.0,9.0,10.0,3.0,0.0,0.0,3.0,121.19,190.2624784662163,1.598098889537239
"N-{2-[(E)-2-(2,6-dicyano-4-nitrophenyl)diazen-1-yl]-5-(diethylamino)phenyl}acetamide",CCN(CC)c1ccc(N=Nc2c(cc(cc2C#N)[N+]([O-])=O)C#N)c(NC(C)=O)c1,-8.1027530485,G1,4.558160000000004,111.00910000000005,8.0,1.0,10.0,7.0,2.0,0.0,0.0,2.0,147.77999999999997,172.76416512451536,2.563405993081389
2-methylpropyl dodecanoate,CCCCCCCCCCCC(=O)OCC(C)C,-7.9318475776,G1,5.106500000000005,77.64100000000006,2.0,0.0,2.0,12.0,0.0,0.0,0.0,0.0,26.3,113.48845007332932,3.1249611953169443
3-methylbutyl octadec-9-enoate,CCCCCCCC\C=C\CCCCCCCC(=O)OCCC(C)C,-8.0701647483,G1,7.613200000000009,109.86600000000008,2.0,0.0,2.0,18.0,0.0,0.0,0.0,0.0,26.3,157.35344184192138,3.198318243663203
nonafluorobutane-1-sulfonyl fluoride,FC(F)(F)C(F)(F)C(F)(F)C(F)(F)[S](F)(=O)=O,-6.0423843487,G1,2.7114,30.923800000000004,2.0,0.0,13.0,3.0,0.0,0.0,0.0,0.0,34.14,86.41032682467568,5.911164433043687
"1,1'-methylenebis(4-fluorobenzene)",Fc1ccc(Cc2ccc(F)cc2)cc1,-6.912156136599999,G1,3.555600000000002,55.60600000000003,0.0,0.0,2.0,2.0,2.0,0.0,0.0,2.0,0.0,87.18451024581009,2.1467113756182017
"methyl 3-({4-[(E)-2-(2,4-dinitrophenyl)diazen-1-yl]-3-acetamidophenyl}(3-methoxy-3-oxopropyl)amino)propanoate",COC(=O)CCN(CCC(=O)OC)c1ccc(N=Nc2ccc(cc2[N+]([O-])=O)[N+]([O-])=O)c(NC(C)=O)c1,-7.3328313355,G1,3.809400000000002,130.15150000000003,12.0,1.0,15.0,12.0,2.0,0.0,0.0,2.0,195.94,209.91200037197223,2.4451826561702283
"2,4-di-tert-butylphenyl 3,5-di-tert-butyl-4-hydroxybenzoate",CC(C)(C)c1ccc(OC(=O)c2cc(c(O)c(c2)C(C)(C)C)C(C)(C)C)c(c1)C(C)(C)C,-7.3410901182,G1,7.801400000000009,134.3073,3.0,1.0,3.0,2.0,2.0,0.0,0.0,2.0,46.53,194.76181435205004,2.6057391534132464
"N-{2-[(E)-2-(2-bromo-4,6-dinitrophenyl)diazen-1-yl]-5-(diethylamino)phenyl}acetamide",CCN(CC)c1ccc(N=Nc2c(Br)cc(cc2[N+]([O-])=O)[N+]([O-])=O)c(NC(C)=O)c1,-7.379569278300001,G1,5.485500000000004,115.93350000000008,8.0,1.0,12.0,8.0,2.0,0.0,0.0,2.0,143.34,179.7696448609259,2.54386569895491
"2,4-dichlorobenzoyl 2,4-dichlorobenzene-1-carboperoxoate",Clc1ccc(c(Cl)c1)C(=O)OOC(=O)c2ccc(Cl)cc2Cl,-8.2787650296,G1,5.229000000000002,83.75500000000001,4.0,0.0,8.0,2.0,2.0,0.0,0.0,2.0,52.6,144.9108764367205,2.0558554078004647
"2-ethyl-N,N-bis(2-ethylhexyl)hexan-1-amine",CCCCC(CC)CN(CC(CC)CCCC)CC(CC)CCCC,-8.2475792783,G1,7.93760000000001,116.3580000000001,1.0,0.0,1.0,18.0,0.0,0.0,0.0,0.0,3.24,160.8927533291549,4.800478378229597
2-heptadecyl-1H-imidazole,CCCCCCCCCCCCCCCCCc1[nH]ccn1,-7.214642713,G1,6.823600000000007,97.22070000000008,1.0,1.0,2.0,16.0,1.0,0.0,0.0,1.0,28.68,138.06422746620012,1.6778614050433194
"propane-2,2-diylbis(4,1-phenyleneoxypropane-3,1-diyl) bis(2-methylacrylate)",CC(=C)C(=O)OCCCOc1ccc(cc1)C(C)(C)c2ccc(OCCCOC(=O)C(C)=C)cc2,-7.4564753884,G1,5.788900000000006,136.78199999999995,6.0,0.0,6.0,14.0,2.0,0.0,0.0,2.0,71.06,208.0905323240499,1.808376290786132
"2,2'-[[4-[(3,5-dinitro-2-thienyl)azo]phenyl]imino]bisethyl diacetate",CC(=O)OCCN(CCOC(C)=O)c1ccc(cc1)N=Nc2sc(cc2[N+]([O-])=O)[N+]([O-])=O,-7.547293505,G1,3.912500000000003,113.72480000000006,12.0,0.0,14.0,11.0,2.0,0.0,0.0,2.0,166.83999999999995,185.11109512993872,2.14272047522032
"2-[[4-(diethylamino)-2-methylphenyl]azo]-5-nitrobenzene-1,3-dicarbonitrile",CCN(CC)c1ccc(N=Nc2c(cc(cc2C#N)[N+]([O-])=O)C#N)c(C)c1,-7.472819969600001,G1,4.908180000000004,101.44240000000003,7.0,0.0,8.0,6.0,2.0,0.0,0.0,2.0,118.67999999999998,156.68783872646694,2.454800498040971
"2,3-dihydroxypropyl tetradecanoate",CCCCCCCCCCCCCC(=O)OCC(O)CO,-7.397875398099999,G1,3.583900000000002,85.12960000000005,4.0,2.0,4.0,15.0,0.0,0.0,0.0,0.0,66.76,129.441859692118,3.1582537460282154
"3-(5-chloro-1,3-benzoxazol-2-yl)-7-(diethylamino)-2H-chromen-2-one",CCN(CC)c1ccc2C=C(C(=O)Oc2c1)c3oc4ccc(Cl)cc4n3,-7.4876332175,G1,5.100800000000003,104.05800000000004,5.0,0.0,6.0,4.0,4.0,0.0,0.0,4.0,59.48,154.35501091277902,1.8358464692578411
copper(2+) ion 1-[N-(2-oxidophenyl)carboximidoyl]naphthalen-2-olate,[Cu++].[O-]c1ccccc1N=Cc2c([O-])ccc3ccccc23,-7.432469538099999,G1,2.735100000000001,76.53600000000004,3.0,0.0,4.0,2.0,3.0,0.0,0.0,3.0,58.48,132.61451423416574,1.6133323822005764e-06
dioxoplumbane,O=[Pb]=O,-7.325679100599999,G1,-0.6184000000000001,7.126999999999999,2.0,0.0,3.0,0.0,0.0,0.0,0.0,0.0,34.14,29.994950366073805,3.2659863237109046
"triethoxy(2,4,4-trimethylpentyl)silane",CCO[Si](CC(C)CC(C)(C)C)(OCC)OCC,-6.4416841407000005,G1,4.107100000000004,78.67500000000007,3.0,0.0,4.0,9.0,0.0,0.0,0.0,0.0,27.69,114.57510703560796,4.629200103222506
"2-cyano-N-methyl-2-[(1E)-3-(2,4,6-trioxo-1,3-diazinan-5-ylidene)-2,3-dihydro-1H-isoindol-1-ylidene]acetamide",CNC(=O)/C(C#N)=C/1NC(c2ccccc12)=C3C(=O)NC(=O)NC3=O,-7.5280099033,G1,-1.8951199999999984,85.72580000000002,5.0,4.0,9.0,1.0,2.0,1.0,1.0,3.0,143.95,139.54498240198953,2.50892871385067
"3-[(E)-2-(4-chloro-2-nitrophenyl)diazen-1-yl]-2-methyl-1H,9H-pyrazolo[3,2-b]quinazolin-9-one",CC\1=NN2C(=O)c3ccccc3N=C2C1=N/Nc4ccc(Cl)cc4[N+]([O-])=O,-7.5829344883,G1,3.0119000000000007,102.7761,8.0,1.0,10.0,3.0,3.0,0.0,1.0,4.0,114.78,156.30696774066865,1.8064774328340143
"5-[3-(2,4,6-trioxo-1,3-diazinan-5-ylidene)-2,3-dihydro-1H-isoindol-1-ylidene]-1,3-diazinane-2,4,6-trione",O=C1NC(=O)C(C(=O)N1)=C2NC(c3ccccc23)=C4C(=O)NC(=O)NC4=O,-7.5649937324,G4,-2.7986999999999984,87.7275,6.0,5.0,11.0,0.0,2.0,2.0,2.0,4.0,166.32999999999998,148.01947795068713,2.136830231784024
O~15~-acetylretinoic acid,CC(=O)OC/C=C(C)/C=C/C=C(C)/C=C/C1=C(C)CCCC1(C)C,-7.5165300857,G1,6.081100000000006,102.75900000000006,2.0,0.0,2.0,6.0,0.0,0.0,1.0,1.0,26.3,147.22425644525848,2.665028163801521
O~15~-propionylretinoic acid,CCC(=O)OC/C=C(C)/C=C/C=C(C)/C=C/C1=C(C)CCCC1(C)C,-7.534689739199999,G1,6.471200000000007,107.37600000000006,2.0,0.0,2.0,7.0,0.0,0.0,1.0,1.0,26.3,153.58919855965507,2.630791535328012
"manganese, 3-hydroxy-4-[(1-sulfo-2-naphthalenyl)azo]-2-naphthalenecarboxylic acid complex",[H+].[Mn++].[O-]C(=O)c1cc2ccccc2c(N=Nc3ccc4ccccc4c3[S]([O-])(=O)=O)c1[O-],-7.6770043618,G1,2.8596000000000013,104.9237,8.0,0.0,10.0,4.0,4.0,0.0,0.0,4.0,145.11,188.12259060410983,1.814998976725591e-06
oxoberyllium,[Be]=O,-7.255116256,G1,-0.4996,6.440499999999999,1.0,0.0,2.0,0.0,0.0,0.0,0.0,0.0,17.07,15.08923139961322,2.0
1-(4-Pentylcyclohexyl)-4-propylbenzene,CCCCCC1CCC(CC1)c2ccc(CCC)cc2,-6.7725704235,G1,6.493200000000007,89.27800000000008,0.0,0.0,0.0,7.0,1.0,1.0,1.0,2.0,0.0,125.53476156752028,1.77713703501558
"2-(2H-1,2,3-benzotriazol-2-yl)-4,6-bis(2-methylbutan-2-yl)phenol",CCC(C)(C)c1cc(n2nc3ccccc3n2)c(O)c(c1)C(C)(C)CC,-8.545917916,G1,5.501300000000006,107.16380000000008,4.0,1.0,4.0,5.0,3.0,0.0,0.0,3.0,50.94,155.40915175977045,2.292866941645641
2-[(E)-2-(3-chloro-4-{3-chloro-4-[(E)-2-[1-(hydrazinecarbonyl)-2-oxopropyl]diazen-1-yl]phenyl}phenyl)diazen-1-yl]-3-oxobutanehydrazide,CC(=O)C(N=Nc1ccc(c(Cl)c1)c2ccc(N=NC(C(C)=O)C(=O)NN)c(Cl)c2)C(=O)NN,-8.7052973925,G1,2.7228,124.52820000000004,10.0,4.0,14.0,9.0,2.0,0.0,0.0,2.0,193.82,203.27398858536188,2.276510746477463
Aluminum cobalt oxide,[O--].[O--].[O--].[O--].[O--].[Al+3].[Al+3].[Co++].[Co++],-8.4010988426,G5,-1.3605999999999998,14.940499999999998,0.0,0.0,9.0,0.0,0.0,0.0,0.0,0.0,142.5,95.1593378488741,-0.0
bismuth vanadium tetraoxide,[O--].[O--].[O--].[O--].[V].[Bi+3],-8.5104350823,G1,-0.8585,8.5,0.0,0.0,6.0,0.0,0.0,0.0,0.0,0.0,114.0,66.54789222527985,-0.0
diiron(3+) ion trioxidandiide,O.[O--].[O--].[O--].[Fe+3].[Fe+3],-8.2496923157,G1,-1.1861,5.673299999999999,0.0,0.0,6.0,0.0,0.0,0.0,0.0,0.0,117.0,56.482732018002736,-0.0
dodecyl 2-methylprop-2-enoate,CCCCCCCCCCCCOC(=O)C(C)=C,-8.4055410062,G1,5.026600000000005,77.61700000000006,2.0,0.0,2.0,12.0,0.0,0.0,0.0,0.0,26.3,112.79884704114512,3.074821696806098
niobium,[Nb],-7.968043762200001,G4,-0.0025,0.0,0.0,0.0,1.0,0.0,0.0,0.0,0.0,0.0,0.0,23.001880613197383,0.0
octadecyl 2-methylprop-2-enoate,CCCCCCCCCCCCCCCCCCOC(=O)C(C)=C,-8.5296561698,G1,7.367200000000008,105.31900000000007,2.0,0.0,2.0,18.0,0.0,0.0,0.0,0.0,26.3,150.98849972752475,3.0505772379377247
"1,8-dihydroxy-4-nitro-5-(phenylamino)-9,10-dihydroanthracene-9,10-dione",Oc1ccc(Nc2ccccc2)c3C(=O)c4c(c(O)ccc4[N+]([O-])=O)C(=O)c13,-8.6461429905,G1,3.525000000000001,99.45770000000005,7.0,3.0,8.0,3.0,3.0,0.0,1.0,4.0,129.77,157.3839942174764,1.9874650818223392
sodium 4-hydroxybenzene-1-sulfonate,[Na+].Oc1ccc(cc1)[S]([O-])(=O)=O,-8.3631893131,G1,-2.699699999999999,36.07000000000001,4.0,1.0,6.0,1.0,1.0,0.0,0.0,1.0,77.43,92.26767250444551,1.2099997657000466e-06
hexadecyl hexadecanoate,CCCCCCCCCCCCCCCCOC(=O)CCCCCCCCCCCCCCC,-8.754650095399999,G1,11.492199999999986,151.58299999999983,2.0,0.0,2.0,29.0,0.0,0.0,0.0,0.0,26.3,215.32752390367517,3.136019616055739
"2-ethylhexanoic acid, zirconium salt",[Zr++].CCCCC(CC)C([O-])=O.CCCCC(CC)C([O-])=O,-8.7020121255,G3,1.9029,76.62600000000006,4.0,0.0,5.0,10.0,0.0,0.0,0.0,0.0,80.25999999999999,148.3789831923783,-2.945454481041324e-07
"3-{2-[(3Z)-5-cyano-1,4-dimethyl-2,6-dioxo-1,2,3,6-tetrahydropyridin-3-ylidene]hydrazin-1-yl}phenyl benzenesulfonate",CN1C(=O)C(=N/Nc2cccc(O[S](=O)(=O)c3ccccc3)c2)\C(=C(C#N)C1=O)C,-8.782716219400001,G1,2.06088,107.84550000000004,8.0,1.0,10.0,5.0,2.0,0.0,1.0,3.0,128.92999999999998,172.55132578383464,1.85590489101779
beryllium,[Be],-7.2558511787,G1,-0.3808,5.754,0.0,0.0,1.0,0.0,0.0,0.0,0.0,0.0,0.0,11.332635763367923,0.0
gold,[Au],-8.8172722155,G1,-0.0025,0.0,0.0,0.0,1.0,0.0,0.0,0.0,0.0,0.0,0.0,23.001880613197383,0.0
cerium dioxide,O=[Ce]=O,-9.1459110865,G1,-0.2376,1.373,2.0,0.0,3.0,0.0,0.0,0.0,0.0,0.0,34.14,39.19032095477321,3.2659863237109046
1-(chloromethyl)-4-[4-(chloromethyl)phenyl]benzene,ClCc1ccc(cc1)c2ccc(CCl)cc2,-10.098913562,G1,4.831200000000004,70.99200000000003,0.0,0.0,2.0,3.0,2.0,0.0,0.0,2.0,0.0,105.82491400811756,2.2751241954898864
3-pentyl nitrate,CCC(CC)O[N+]([O-])=O,-2.4522,G1,1.3833,32.44939999999999,3.0,0.0,4.0,4.0,0.0,0.0,0.0,0.0,52.37,53.91957893690064,3.4263044810116607
5-bromo-3-hydroxybenzaldehyde,Oc1cc(Br)cc(C=O)c1,-3.2502,G1,1.9672,41.19430000000001,2.0,1.0,3.0,1.0,1.0,0.0,0.0,1.0,37.3,66.61964869177471,3.1790298004027595
meperidine,[H+].[Cl-].CCOC(=O)C1(CCN(C)CC1)c2ccccc2,-1.6368,G1,-0.670399999999997,72.59600000000005,3.0,0.0,4.0,3.0,1.0,1.0,1.0,2.0,29.54,122.3828436173362,1.8049995100376383e-06
hydroxyphenamate,CCC(O)(COC(N)=O)c1ccccc1,-0.9227,G1,1.3795000000000002,56.16520000000003,3.0,2.0,4.0,4.0,1.0,0.0,0.0,1.0,72.55000000000001,88.66530547023939,2.8043725752995514
lactic acid,CC(O)C(O)=O,1.0454,G1,-0.5482,19.3166,2.0,2.0,3.0,1.0,0.0,0.0,0.0,0.0,57.53,35.21912486105855,3.2575861612334887
estradiol,C[C@]12CC[C@H]3[C@@H](CCc4cc(O)ccc34)[C@@H]1CC[C@@H]2O,-4.8789,G3,3.609200000000002,78.73060000000004,2.0,2.0,2.0,0.0,1.0,2.0,3.0,4.0,40.46,120.38168253606062,1.7111998765070122
"2,6-dichlorobenzoic acid",OC(=O)c1c(Cl)cccc1Cl,-1.1309,G1,2.691600000000001,43.42130000000001,1.0,1.0,4.0,1.0,1.0,0.0,0.0,1.0,37.3,73.35863353989669,3.318913173486669
"2,3,6-trichlorobenzoic acid",OC(=O)c1c(Cl)ccc(Cl)c1Cl,-1.4666,G3,3.3450000000000006,48.43130000000001,1.0,1.0,5.0,1.0,1.0,0.0,0.0,1.0,37.3,83.66189976677836,3.4289308810061763