Name,SMILES,Solubility,Group,MolLogP,MolMR,NumHAcceptors,NumHDonors,NumHeteroatoms,NumRotatableBonds,NumAromaticRings,NumSaturatedRings,NumAliphaticRings,RingCount,TPSA,LabuteASA,BalabanJ
"1,2-dithiane-3,6-dicarboxylic acid, cis-",OC(=O)[C@@H]1CC[C@@H](SS1)C(O)=O,-1.1709,G1,1.0679999999999998,47.26360000000001,4.0,2.0,6.0,2.0,0.0,1.0,1.0,1.0,74.6,77.11582428784307,2.3927770801931003
"2,4(1h,3h)-pyrimidinedione, 1-methyl-5-nitro-",CN1C=C(C(=O)NC1=O)[N+]([O-])=O,-1.9977,G1,-1.0181999999999998,38.9581,5.0,1.0,7.0,1.0,1.0,0.0,0.0,1.0,98.0,65.42163260496925,3.542028922207898
dinitramine,CCN(CC)c1c(cc(c(N)c1[N+]([O-])=O)C(F)(F)F)[N+]([O-])=O,-5.4668,G2,2.9502000000000006,72.72619999999999,6.0,1.0,11.0,5.0,1.0,0.0,0.0,1.0,115.54000000000002,122.15839571247436,3.926692551025889
benzoximate,CCN(OC(=O)c1ccccc1)C(=O)c2c(OC)ccc(Cl)c2OC,-4.0837,G1,3.591300000000002,93.12400000000004,5.0,0.0,7.0,5.0,2.0,0.0,0.0,2.0,65.07000000000001,150.35896829711186,2.342111865414857
atenolol,CC(C)NCC(O)COc1ccc(CC(N)=O)cc1,-1.3016,G3,0.4521,73.98090000000003,4.0,3.0,5.0,8.0,1.0,0.0,0.0,1.0,84.57999999999998,113.30999399703728,2.346203475304779
"propanediamide, 2,2-diethyl-",CCC(CC)(C(N)=O)C(N)=O,-1.1992,G1,-0.2366,41.4038,2.0,2.0,4.0,4.0,0.0,0.0,0.0,0.0,86.18,65.93172930832216,4.755466586015747
Mecarphon,COC(=O)N(C)C(=O)CS[P](C)(=S)OC,-1.9563,G1,1.5301,64.85100000000003,6.0,0.0,8.0,4.0,0.0,0.0,0.0,0.0,55.84,98.3171542789561,4.1585381289277885
hexadecanol,CCCCCCCCCCCCC(O)CCC,-6.7708,G1,5.458400000000006,77.37580000000007,1.0,1.0,1.0,13.0,0.0,0.0,0.0,0.0,20.23,109.0076164959747,2.981381133365294
"1-naphthalenecarboxamide, n-hydroxy-n-phenyl-",ON(c1ccccc1)C(=O)c2cccc3ccccc23,-3.9433,G1,3.8758000000000017,78.98600000000003,2.0,1.0,3.0,2.0,3.0,0.0,0.0,3.0,40.54,116.20473199361396,2.050760819672157
"benzamide, n-hydroxy-n-1-naphthalenyl-",ON(C(=O)c1ccccc1)c2cccc3ccccc23,-3.3065,G1,3.8758000000000026,78.98600000000005,2.0,1.0,3.0,2.0,3.0,0.0,0.0,3.0,40.54,116.20473199361396,2.049692341781129
"benzamide, 3,5-dinitro-n-phenyl-n-hydroxy-",ON(c1ccccc1)C(=O)c2cc(cc(c2)[N+]([O-])=O)[N+]([O-])=O,-3.6367,G1,2.5390000000000006,74.78880000000001,6.0,1.0,9.0,4.0,2.0,0.0,0.0,2.0,126.82000000000002,122.82901890687832,2.4459363196811
"acetic acid, [(aminothioxomethyl)thio]-",NC(=S)SCC(O)=O,-0.7482,G1,0.0478,36.8792,3.0,2.0,5.0,2.0,0.0,0.0,0.0,0.0,63.32,56.24667207844538,3.1818458670936187
"glycine, n-(dithiocarboxy)-, n-ester with mercap",OC(=O)CNC(=S)SCC(O)=O,-1.3011,G1,-0.2366999999999999,48.33030000000001,4.0,3.0,7.0,4.0,0.0,0.0,0.0,0.0,86.63,78.14228364607371,3.467235170058121
"benzamide, n-[2-(1h-imidazol-4-yl)ethyl]-",O=C(NCCc1c[nH]cn1)c2ccccc2,-0.634,G1,1.3822,61.066900000000025,2.0,2.0,4.0,4.0,2.0,0.0,0.0,2.0,57.78,93.72351635436344,1.8058515602791252
isodecyl diphenyl phosphate,CC(C)CCCCCCCO[P](=O)(Oc1ccccc1)Oc2ccccc2,-5.7165,G2,7.265700000000007,110.23850000000006,4.0,0.0,5.0,13.0,2.0,0.0,0.0,2.0,44.760000000000005,163.02816483252278,1.8204571177531328
ethiofencarb,CCSCc1ccccc1OC(=O)NC,-2.0927,G1,2.6579000000000006,63.36170000000004,3.0,1.0,4.0,4.0,1.0,0.0,0.0,1.0,38.33,94.20415323000394,2.717126876654733
"1,2:3,4-diepoxybutane (2s,3s)",C1O[C@@H]1[C@@H]2CO2,1.065,G1,-0.2159999999999999,19.48,2.0,0.0,2.0,1.0,0.0,2.0,2.0,2.0,25.06,36.04950552297468,1.9155467020454344
ethidimuron,CC[S](=O)(=O)c1sc(nn1)N(C)C(=O)NC,-1.945,G1,0.1073,60.49450000000002,6.0,1.0,9.0,3.0,1.0,0.0,0.0,1.0,92.26,97.40084282783104,3.0029010418899187
"propanoic acid, 2-(2,4,5-trichlorophenoxy)-, (r)",C[C@@H](Oc1cc(Cl)c(Cl)cc1Cl)C(O)=O,-3.1295,G1,3.4987000000000013,59.197800000000015,2.0,1.0,6.0,3.0,1.0,0.0,0.0,1.0,46.53,101.50532922507848,2.9526811232485635
"2-furanol, 5-ethyltetrahydro-",CCC1CCC(O)O1,-0.0651,G1,0.8937999999999999,30.404799999999984,2.0,1.0,2.0,1.0,0.0,1.0,1.0,1.0,29.46,49.46590942798625,2.218336754489984
"1,2:3,4-diepoxybutane (2r,3r)",C1O[C@H]1[C@H]2CO2,1.065,G1,-0.2159999999999999,19.48,2.0,0.0,2.0,1.0,0.0,2.0,2.0,2.0,25.06,36.04950552297468,1.9155467020454344
"1,6-dioxaspiro[4,4]nonane, 2,7-dimethyl-",CC1CCC2(CCC(C)O2)O1,-0.4487,G1,2.0805,42.29300000000001,2.0,0.0,2.0,0.0,0.0,2.0,2.0,2.0,18.46,67.8742160949577,2.017857381506242
"thymidine, 3'-azido-3'-deoxy-",CC1=CN([C@H]2C[C@H](N=[N+]=[N-])[C@@H](CO)O2)C(=O)NC1=O,-1.1221,G1,-0.1962800000000001,64.60650000000003,6.0,2.0,9.0,3.0,1.0,1.0,1.0,2.0,133.07999999999998,106.62903730140096,2.3418569370217903
etofenamate,OCCOCCOC(=O)c1ccccc1Nc2cccc(c2)C(F)(F)F,-5.3633,G1,3.6147000000000022,89.35600000000004,5.0,2.0,8.0,8.0,2.0,0.0,0.0,2.0,67.78999999999999,147.90746471558094,2.080043168351528
"pteridine, 4-methoxy-",COc1ncnc2nccnc12,-1.113,G1,0.4283999999999998,41.68000000000001,5.0,0.0,5.0,1.0,2.0,0.0,0.0,2.0,60.790000000000006,68.47014691892171,2.7909670297392646
zolone,CCO[P](=S)(OCC)SCN1C(=O)Oc2ccccc12,-5.1905,G1,3.5827000000000018,85.60200000000003,7.0,0.0,8.0,7.0,2.0,0.0,0.0,2.0,53.6,125.7152920074609,2.2180333944982813
benzo(a)fluorene,C1c2ccccc2c3ccc4ccccc4c13,-6.678,G1,4.411000000000003,72.19000000000004,0.0,0.0,0.0,0.0,3.0,0.0,1.0,4.0,0.0,100.52927281816358,2.108386555401141
Methacrifos,COC(=O)C(/C)=C/O[P](=S)(OC)OC,-2.7785,G1,1.5970999999999995,55.16100000000003,6.0,0.0,7.0,5.0,0.0,0.0,0.0,0.0,53.99000000000001,88.23493180330921,4.409580422877201
cafaminol,CN(CCO)c1nc2N(C)C(=O)N(C)C(=O)c2n1C,-0.6488,G1,-1.600799999999999,71.55180000000003,8.0,1.0,8.0,3.0,2.0,0.0,0.0,2.0,85.28999999999999,108.67785078373852,2.8473944073478066
isocarbamid,CC(C)CNC(=O)N1CCNC1=O,-2.1538,G1,0.3772000000000003,48.34140000000002,2.0,2.0,5.0,2.0,0.0,1.0,1.0,1.0,61.440000000000005,77.47061691258357,2.343705379279258
"3(2h)-thiazoleacetic acid, 4-methyl-2-thioxo-",CC1=CSC(=S)N1CC(O)=O,-1.9632,G1,1.6721100000000002,45.515800000000006,4.0,1.0,5.0,2.0,1.0,0.0,0.0,1.0,42.23,72.91074830008479,3.0140767554363426
propetamphos,CCN[P](=S)(OC)OC(/C)=C\C(=O)OC(C)C,-3.4078,G1,2.3388,71.04070000000003,5.0,1.0,7.0,7.0,0.0,0.0,0.0,0.0,56.790000000000006,107.73561421823096,4.503497672294196
3-methyl-2-heptanol,CCCCC(C)C(C)O,-2.0578,G3,2.1935000000000007,40.369800000000005,1.0,1.0,1.0,4.0,0.0,0.0,0.0,0.0,20.23,58.08807958080181,3.1552800835051924
"benzo[a]pyrene, 5-methyl-",Cc1cc2cccc3ccc4c5ccccc5cc1c4c23,-8.5224,G1,6.045620000000003,92.38900000000004,0.0,0.0,0.0,0.0,5.0,0.0,0.0,5.0,0.0,122.50202824096998,2.247306136171312
lyral,CC(C)(O)CCCC1=CCC(CC1)C=O,-1.5376,G1,2.853000000000001,61.63680000000005,2.0,1.0,2.0,5.0,0.0,0.0,1.0,1.0,37.3,92.37887806711514,2.231519597710934
heptachloronaphthalene,Clc1cc(Cl)c2c(Cl)c(Cl)c(Cl)c(Cl)c2c1Cl,-8.775,G1,7.4136,79.018,0.0,0.0,7.0,0.0,2.0,0.0,0.0,2.0,0.0,132.23593123940384,3.16510241661846
divicine,NC1N=C(N)NC(=O)C1=O,-1.6978,G1,-2.7152000000000003,32.7475,5.0,3.0,6.0,0.0,0.0,0.0,1.0,1.0,110.57,56.27625648107127,2.891437679339084
"2-furoic acid, 3,4,5-trichloro-",OC(=O)c1oc(Cl)c(Cl)c1Cl,-2.2193,G1,2.938,40.6973,2.0,1.0,6.0,1.0,1.0,0.0,0.0,1.0,50.44,76.4562290308552,3.2945798128540176
"9-octadecenoic acid, 12-(sulfooxy)-, (z)-",CCCCCCC(C\C=C/CCCCCCCC(O)=O)O[S](O)(=O)=O,-0.5781,G1,4.906400000000003,98.89240000000008,4.0,2.0,7.0,17.0,0.0,0.0,0.0,0.0,100.9,152.16060490823298,3.856793660217174
"4-quinolinecarboxylic acid, 1,2-dihydro-6-methox",COc1ccc2NC(=O)C=C(C([O-])=O)c2c1,-3.1104,G1,-0.0998000000000005,55.45120000000001,4.0,1.0,5.0,2.0,2.0,0.0,0.0,2.0,82.22,90.29342304276231,2.8550917455198594
"d-glucuronic acid, .gamma.-lactone",O[C@@H](C=O)[C@H]1OC(=O)[C@@H](O)[C@H]1O,0.1641,G1,-2.8066,33.9644,6.0,3.0,6.0,2.0,0.0,1.0,1.0,1.0,104.06,67.37742113246578,2.698677589881441
"2-furancarboxylic acid, 3,4-dibromo-",OC(=O)c1occ(Br)c1Br,-2.0887,G1,2.5028,41.0673,2.0,1.0,5.0,1.0,1.0,0.0,0.0,1.0,50.44,73.28152556149291,3.1737923196144764
"succinamic acid, 3-amino-2-hydroxy-",NC(C(O)C(O)=O)C(N)=O,-1.1494,G1,-2.755500000000001,30.812400000000004,4.0,4.0,6.0,3.0,0.0,0.0,0.0,0.0,126.64,56.42537046952435,4.069511908932011
"2(1h)-pyrimidinone, 4-amino-5-ethyl-",CCC1=CNC(=O)N=C1N,-1.0197,G1,-0.0855,38.64809999999999,3.0,2.0,4.0,1.0,1.0,0.0,0.0,1.0,71.77,58.101996107239685,3.194770634674176
"2,3,3',4,4'-pentachloro-1,1'-biphenyl",Clc1ccc(cc1Cl)c2ccc(Cl)c(Cl)c2Cl,-7.9823,G4,6.6206000000000005,76.92800000000003,0.0,0.0,5.0,1.0,2.0,0.0,0.0,2.0,0.0,124.00482845996932,2.607376582541065
"1,2-dithiane-3,6-dicarboxylic acid, trans-",OC(=O)[C@H]1CC[C@@H](SS1)C(O)=O,-1.5241,G1,1.0679999999999998,47.26360000000001,4.0,2.0,6.0,2.0,0.0,1.0,1.0,1.0,74.6,77.11582428784307,2.3927770801931003
"3,3',4,4',5,5'-pcb",Clc1cc(cc(Cl)c1Cl)c2cc(Cl)c(Cl)c(Cl)c2,-8.8498,G1,7.274000000000001,81.938,0.0,0.0,6.0,1.0,2.0,0.0,0.0,2.0,0.0,134.308094686851,2.625182066053657
procymidone,CC12CC1(C)C(=O)N(C2=O)c3cc(Cl)cc(Cl)c3,-4.8003,G1,3.2829000000000024,69.78600000000003,2.0,0.0,5.0,1.0,1.0,2.0,2.0,3.0,37.38,114.663745937269,2.090283905345448
m-bromocinnamic acid,OC(=O)/C=C/c1cccc(Br)c1,-2.636,G1,2.546900000000001,50.81180000000002,1.0,1.0,3.0,2.0,1.0,0.0,0.0,1.0,37.3,78.65992988838367,2.826395262966909
amitraz,CN(C=Nc1ccc(C)cc1C)C=Nc2ccc(C)cc2C,-5.4675,G2,4.871880000000004,95.89900000000004,2.0,0.0,3.0,4.0,2.0,0.0,0.0,2.0,27.96,132.59357076826086,2.0683644020981955
"1,1'-biphenyl, 2,2',3,3',4,4',6,6'-octachloro-",Clc1cc(Cl)c(c(Cl)c1Cl)c2c(Cl)cc(Cl)c(Cl)c2Cl,-9.1,G1,8.580799999999998,91.95799999999998,0.0,0.0,8.0,1.0,2.0,0.0,0.0,2.0,0.0,154.9146271406144,2.895968700830221
2-ethylacetanilide,CCc1ccccc1NC(C)=O,-1.5906,G1,2.2074,50.12370000000003,1.0,1.0,2.0,2.0,1.0,0.0,0.0,1.0,29.1,72.60255586073521,2.8889412995372648
endosulfan (beta),ClC1=C(Cl)C2(Cl)[C@@H]3CO[S](=O)OC[C@@H]3[C@@]1(Cl)C2(Cl)Cl,-5.9563,G1,3.689800000000001,77.36340000000001,3.0,0.0,10.0,0.0,0.0,2.0,3.0,3.0,35.53,141.7906412262262,2.187726044332392
fluchloralin,CCCN(CCCl)c1c(cc(cc1[N+]([O-])=O)C(F)(F)F)[N+]([O-])=O,-5.5968,G2,3.977000000000003,77.97680000000001,5.0,0.0,11.0,7.0,1.0,0.0,0.0,1.0,89.51999999999998,133.48671335673995,3.699377936225601
"3,3',5,5'-tetrachlorobiphenyl",Clc1cc(Cl)cc(c1)c2cc(Cl)cc(Cl)c2,-8.3748,G3,5.967200000000002,71.918,0.0,0.0,4.0,1.0,2.0,0.0,0.0,2.0,0.0,113.70156223308769,2.5749093159100207
"2,3,5,6-tetrachlorobiphenyl",Clc1cc(Cl)c(Cl)c(c2ccccc2)c1Cl,-7.25,G1,5.967200000000002,71.918,0.0,0.0,4.0,1.0,2.0,0.0,0.0,2.0,0.0,113.7015622330877,2.740855577250552
butralin,CCC(C)Nc1c(cc(cc1[N+]([O-])=O)C(C)(C)C)[N+]([O-])=O,-5.4703,G1,4.010900000000003,81.82650000000002,5.0,1.0,7.0,5.0,1.0,0.0,0.0,1.0,98.31,123.20675366327744,3.588145946501451
"ethanone, 1-(3,4,5-trihydroxyphenyl)-",CC(=O)c1cc(O)c(O)c(O)c1,-1.4711,G1,1.0059999999999998,41.44090000000002,4.0,3.0,4.0,1.0,1.0,0.0,0.0,1.0,77.76,68.70551070492198,3.306535412749064
isopropalin,CCCN(CCC)c1c(cc(cc1[N+]([O-])=O)C(C)C)[N+]([O-])=O,-6.4491,G3,4.252800000000004,86.63480000000003,5.0,0.0,7.0,8.0,1.0,0.0,0.0,1.0,89.51999999999998,129.78166726426937,3.6210484465888126
"phosphorohydrazidic acid, diphenyl ester",NN[P](=O)(Oc1ccccc1)Oc2ccccc2,-2.2373,G1,2.7158000000000007,69.06960000000004,4.0,2.0,6.0,5.0,2.0,0.0,0.0,2.0,73.58,105.09462647753638,2.1376638619969057
methyl phenylsulfonyl acetate,COC(=O)C[S](=O)(=O)c1ccccc1,-1.1406,G1,0.6333000000000001,50.51080000000003,4.0,0.0,5.0,3.0,1.0,0.0,0.0,1.0,60.440000000000005,82.42669517402405,2.928226466735241
"l-alanine, n-[(ethylthio)thioxomethyl]-",CCSC(=S)N[C@@H](C)C(O)=O,-0.9613,G1,1.0871,50.96350000000002,3.0,2.0,5.0,3.0,0.0,0.0,0.0,0.0,49.33,75.55146990823054,3.6598886651041695
"1,2,3-benzenetricarboxylic acid, 5-bromo-",OC(=O)c1cc(Br)cc(C(O)=O)c1C(O)=O,-1.4481,G1,1.5437,55.0199,3.0,3.0,7.0,3.0,1.0,0.0,0.0,1.0,111.9,97.2610446250475,3.6715095917744094
"1,1-bis(p-meo-ph)-2-nitropropane",COc1ccc(cc1)C(C(C)[N+]([O-])=O)c2ccc(OC)cc2,-4.5446,G1,3.5009000000000023,84.28740000000005,4.0,0.0,5.0,6.0,2.0,0.0,0.0,2.0,61.6,129.19327407905757,2.4199933677152
dimefuron,CN(C)C(=O)Nc1ccc(N2N=C(OC2=O)C(C)(C)C)c(Cl)c1,-4.3258,G1,2.869900000000001,88.51570000000002,5.0,1.0,8.0,2.0,2.0,0.0,0.0,2.0,80.37,138.39114868808775,2.371095244437111
cumylphenyl diphenyl phosphate,CC(C)c1cc(O[P](=O)(Oc2ccccc2)Oc3ccccc3)cc(c1)c4ccccc4,-6.8485,G1,8.121900000000007,128.3415,4.0,0.0,5.0,8.0,4.0,0.0,0.0,4.0,44.760000000000005,188.5877584438746,1.7208848299528194
"2-propenoic acid, 7-bromo-5-chloro-8-quinolinyl",Clc1cc(Br)c(OC(=O)C=C)c2ncccc12,-4.7168,G1,3.7421000000000015,70.28500000000001,3.0,0.0,5.0,2.0,2.0,0.0,0.0,2.0,39.19,111.18382010525792,2.6857347800330613
dipropylene glycol methyl ether,COC(C)COC(C)CO,0.8292,G2,0.4186999999999999,38.9708,3.0,1.0,3.0,5.0,0.0,0.0,0.0,0.0,38.69,61.950227925418965,3.1681741287467013
orbencarb,CCN(CC)C(=O)SCc1ccccc1Cl,-4.031000000000001,G1,4.035000000000004,71.06400000000004,2.0,0.0,4.0,4.0,1.0,0.0,0.0,1.0,20.31,105.96878782837068,2.517561791459273
prothiophos,CCCS[P](=S)(OCC)Oc1ccc(Cl)cc1Cl,-6.693,G1,5.776400000000003,85.75000000000004,4.0,0.0,7.0,7.0,1.0,0.0,0.0,1.0,18.46,127.25468909782658,2.8510032626884056
butocarboxim,CNC(=O)O\N=C(\C)C(C)SC,-0.7353,G1,1.4698,51.62670000000003,4.0,1.0,5.0,3.0,0.0,0.0,0.0,0.0,50.69,76.72630423807122,3.912237963056304
butoxycarboxim,CNC(=O)O\N=C(/C)C(C)[S](C)(=O)=O,-0.0267,G1,0.1513999999999999,52.95550000000003,5.0,1.0,7.0,3.0,0.0,0.0,0.0,0.0,84.82999999999998,83.22859259449255,4.473265368176582
heptenophos,CO[P](=O)(OC)OC1=C(Cl)CC2C=CC12,-2.0566,G1,3.060200000000002,56.32550000000002,4.0,0.0,6.0,4.0,0.0,0.0,2.0,2.0,44.760000000000005,93.46143216145283,2.1471299607869607
"acetic acid, 2,2',2''-[methylidynetris(thio)]tri",OC(=O)CSC(SCC(O)=O)SCC(O)=O,-1.4243,G1,0.7233999999999999,64.06940000000002,6.0,3.0,9.0,9.0,0.0,0.0,0.0,0.0,111.9,104.16550134702427,3.9848881650459993
"2,2',3,4,4',5,5'-heptachlorobiphenyl",Clc1cc(Cl)c(cc1Cl)c2cc(Cl)c(Cl)c(Cl)c2Cl,-8.0115,G1,7.9274,86.94800000000001,0.0,0.0,7.0,1.0,2.0,0.0,0.0,2.0,0.0,144.61136091373268,2.761979214703
"2,2',3,3',4,4',5-heptachlorobiphenyl",Clc1ccc(c(Cl)c1Cl)c2cc(Cl)c(Cl)c(Cl)c2Cl,-8.0566,G1,7.9274,86.94800000000001,0.0,0.0,7.0,1.0,2.0,0.0,0.0,2.0,0.0,144.61136091373268,2.768496895571185
"dl-alanine, n-(2-chlorophenyl)-",CC(Nc1ccccc1Cl)C(O)=O,-2.3271,G1,2.225,52.172500000000014,2.0,2.0,4.0,3.0,1.0,0.0,0.0,1.0,49.33,81.33511372541629,2.742841851112674
tebutam,CC(C)N(Cc1ccccc1)C(=O)C(C)(C)C,-2.4704,G1,3.4697000000000022,71.58300000000006,1.0,0.0,2.0,3.0,1.0,0.0,0.0,1.0,20.31,104.63723791931358,2.8515011521990226