Name,SMILES,Solubility,Group,MolLogP,MolMR,NumHAcceptors,NumHDonors,NumHeteroatoms,NumRotatableBonds,NumAromaticRings,NumSaturatedRings,NumAliphaticRings,RingCount,TPSA,LabuteASA,BalabanJ
"2,4,6,8,10-pentamethyl-1,3,5,7,9,2,4,6,8,10-pentaoxapentasilecane",C[Si]1O[Si](C)O[Si](C)O[Si](C)O[Si](C)O1,0.5292955703,G1,0.6729999999999998,63.51500000000003,5.0,0.0,10.0,0.0,0.0,1.0,1.0,1.0,46.150000000000006,99.8825090894052,2.545062749921742
2-(2-ethoxyethoxy)ethyl acetate,CCOCCOCCOC(C)=O,0.7539645195999999,G1,0.6025999999999998,43.94500000000002,4.0,0.0,4.0,7.0,0.0,0.0,0.0,0.0,44.760000000000005,72.79600361717021,2.86138733944056
[tris(isopropenyloxy)vinyl]silane,CC(=C)O[Si](OC(C)=C)(OC(C)=C)C=C,0.6452233386,G1,3.3011000000000017,63.64800000000003,3.0,0.0,4.0,7.0,0.0,0.0,0.0,0.0,27.69,92.72186856368111,4.897563150614515
"butane-1,4-diol",OCCCCO,1.0451691789,G3,-0.2488,23.405599999999996,2.0,2.0,2.0,3.0,0.0,0.0,0.0,0.0,40.46,37.4225448754114,2.3390923149762908
"hexamethyl-1,3,5,2,4,6-trioxatrisilinane",C[Si]1(C)O[Si](C)(C)O[Si](C)(C)O1,0.652738306,G2,2.1552,55.70100000000004,3.0,0.0,6.0,0.0,0.0,1.0,1.0,1.0,27.69,77.78169904438485,2.808020996764068
"propane-1,2,3-triol",OCC(O)CO,1.0357686635,G5,-1.6681,20.1784,3.0,3.0,3.0,2.0,0.0,0.0,0.0,0.0,60.69,35.851836513210806,2.7541847860376616
tetraethylazanium bromide,[Br-].CC[N+](CC)(CC)CC,0.6774520067,G1,-1.1131999999999982,42.424400000000006,0.0,0.0,2.0,4.0,0.0,0.0,0.0,0.0,0.0,75.77635309785198,0.0
tetraethylazanium chloride,[Cl-].CC[N+](CC)(CC)CC,0.7806565243000001,G1,-1.1131999999999982,42.424400000000006,0.0,0.0,2.0,4.0,0.0,0.0,0.0,0.0,0.0,71.41674423795392,0.0
tripotassium methylsilanetris(olate),[K+].C[Si](O)(O)[O-],0.8786634333,G1,-5.095999999999998,16.055600000000002,3.0,2.0,5.0,0.0,0.0,0.0,0.0,0.0,63.52,79.79548981188204,0.0
"butan-2-one O,O',O''-(methylsilylidyne)trioxime",CC/C(C)=N/O[Si@](C)(O\N=C(C)\CC)O\N=C(C)\CC,-0.4792340167,G1,3.962600000000004,85.07300000000005,6.0,0.0,7.0,9.0,0.0,0.0,0.0,0.0,64.77,122.75824787722564,4.919056398986903
peroxol,OO,0.4683422926,G1,0.0173999999999999,5.2576,2.0,2.0,2.0,0.0,0.0,0.0,0.0,0.0,40.46,11.892071733563276,1.0
2-hydroxy-4-methylbenzoic acid,Cc1ccc(C(O)=O)c(O)c1,-1.1822691023,G2,1.39882,39.80310000000001,2.0,2.0,3.0,1.0,1.0,0.0,0.0,1.0,57.53,63.91127695272596,3.1960696621259195
2-hydroxy-5-nitrobenzoic acid,OC(=O)c1cc(ccc1O)[N+]([O-])=O,-2.2627334080000003,G3,0.9986,41.72050000000001,4.0,2.0,6.0,2.0,1.0,0.0,0.0,1.0,100.67,72.19931056082916,3.267052212361692
"1,2-dimethyl-4-nitrobenzene",Cc1ccc(cc1C)[N+]([O-])=O,-3.1794512484,G1,2.21164,42.57040000000002,2.0,0.0,3.0,1.0,1.0,0.0,0.0,1.0,43.14,64.81426307078998,3.1515496683060507
1-chloro-2-(chloromethyl)benzene,ClCc1ccccc1Cl,-3.2069094899,G1,3.078800000000001,41.009000000000015,0.0,0.0,2.0,1.0,1.0,0.0,0.0,1.0,0.0,64.40287768765691,3.0065240073265844
2-phenylacetonitrile,N#CCc1ccccc1,-3.0687460001,G1,1.75268,35.75900000000001,1.0,0.0,1.0,1.0,1.0,0.0,0.0,1.0,23.79,54.55386702975889,2.756899621214729
"4,4'-methylenebis(2,6-dimethylphenol)",Cc1cc(Cc2cc(C)c(O)c(C)c2)cc(C)c1O,-3.4088248510000003,G1,3.922280000000003,77.96760000000003,2.0,2.0,2.0,2.0,2.0,0.0,0.0,2.0,40.46,113.90167540193606,2.3641287974343315
sodium dodecylbenzenesulfonate,[Na].CCCCCCCCCCCCO[S](=O)(=O)c1ccccc1,-3.543437239,G3,4.932000000000005,97.17780000000008,3.0,0.0,5.0,13.0,1.0,0.0,0.0,1.0,43.370000000000005,164.1720556023197,4.839993903808018e-06
tridecan-1-ol,CCCCCCCCCCCCCO,-3.3018240282,G1,4.289700000000004,63.54680000000006,1.0,1.0,1.0,11.0,0.0,0.0,0.0,0.0,20.23,89.9127901527849,2.7847655305545773
bismuth(3+) citrate,[Bi+3].OC(CC([O-])=O)(CC([O-])=O)C([O-])=O,-4.5597626401,G1,-5.633399999999998,34.958800000000004,7.0,1.0,8.0,5.0,0.0,0.0,0.0,0.0,140.62,97.4737204993188,0.0
2-tert-butylcyclohexyl ethyl carbonate,CCOC(=O)OC1CCCCC1C(C)(C)C,-4.3211402828,G1,3.764400000000003,63.30800000000005,3.0,0.0,3.0,2.0,0.0,1.0,1.0,1.0,35.53,98.50133780611714,2.569183230974664
"4-[4-(4-chlorophenyl)-4-hydroxypiperidin-1-yl]-N,N-dimethyl-2,2-diphenylbutanamide",[H+].[Cl-].CN(C)C(=O)C(CCN1CCC(O)(CC1)c2ccc(Cl)cc2)(c3ccccc3)c4ccccc4,-4.6731215617,G1,2.204500000000001,139.10979999999986,3.0,1.0,6.0,7.0,3.0,1.0,1.0,4.0,43.78,220.97070467803155,2.281664617022736e-06
hexanoyl hexanoate,CCCCCC(=O)OC(=O)CCCCC,-4.296805043,G1,3.216800000000002,59.383000000000045,3.0,0.0,3.0,8.0,0.0,0.0,0.0,0.0,43.370000000000005,92.19020371578664,3.446938378091589
undecan-2-one,CCCCCCCCCC(C)=O,-4.2018206695,G1,3.716100000000002,53.29100000000004,1.0,0.0,1.0,8.0,0.0,0.0,0.0,0.0,17.07,76.55019427183942,2.86138733944056
[2-(tert-butylperoxy)propan-2-yl]benzene,CC(C)(C)OOC(C)(C)c1ccccc1,-4.2909341502,G1,3.6684000000000023,61.39100000000005,2.0,0.0,2.0,3.0,1.0,0.0,0.0,1.0,18.46,92.1423836950253,2.6788339682610025
2-methylheptyl 2-sulfanylacetate,CC(C)CCCCCOC(=O)CS,-4.2850368969,G1,2.675800000000001,58.118000000000045,3.0,1.0,3.0,7.0,0.0,0.0,0.0,0.0,26.3,86.45386405035137,3.0380099445134228
"octa-1,7-diene",C=CCCCCC=C,-4.0232731502,G1,2.918800000000002,38.862,0.0,0.0,0.0,5.0,0.0,0.0,0.0,0.0,0.0,51.91463976423729,2.7079488122831483
2-tert-butylcyclohexyl acetate,CC(=O)O[C@@H]1CCCC[C@@H]1C(C)(C)C,-4.2973358545,G1,3.1544000000000016,56.96700000000005,2.0,0.0,2.0,1.0,0.0,1.0,1.0,1.0,26.3,87.02285046221365,2.637578590150264
"5-chloro-2-(2,4-dichlorophenoxy)phenol",Oc1cc(Cl)ccc1Oc2ccc(Cl)cc2Cl,-4.4617160697000005,G5,5.144700000000002,69.65280000000003,2.0,1.0,5.0,2.0,2.0,0.0,0.0,2.0,29.46,113.3060749879089,2.3122378354877973
N-[3-(dimethylamino)propyl]octadecanamide,CCCCCCCCCCCCCCCCCC(=O)NCCCN(C)C,-4.5666142382,G2,6.315800000000007,115.72670000000012,2.0,1.0,3.0,20.0,0.0,0.0,0.0,0.0,32.34,164.2391954984102,3.1132141182822317
sodium 4-(4-(2-hydroxynaphthalenylazo)phenylazo)benzenesulphonate,[Na+].O[S](=O)(=O)c1ccc(cc1)N=Nc2ccc(N\N=C3/C(=O)C=Cc4ccccc34)cc2,-4.65844166,G1,1.7648000000000004,117.51730000000002,7.0,2.0,10.0,5.0,3.0,0.0,1.0,4.0,120.54999999999998,206.37558207048653,2.88999525665386e-06
magnesium(2+) ion dihydroxide,[OH-].[OH-].[Mg++],-4.4691448782,G5,-0.7343999999999999,9.6256,2.0,0.0,3.0,0.0,0.0,0.0,0.0,0.0,60.0,34.59988042482873,-0.0
"1,3,3-trimethyl-2-oxabicyclo[2.2.2]octane; 1-methyl-4-(prop-1-en-2-yl)cyclohex-1-ene; 2,6,6-trimethylbicyclo[3.1.1]hept-2-ene",CC(=C)C1CCC(=CC1)C.CC2=CCC3CC2C3(C)C.CC45CCC(CC4)C(C)(C)O5,-5.3356859318000005,G2,9.051700000000002,135.191,1.0,0.0,1.0,1.0,0.0,4.0,6.0,6.0,9.23,193.3498150176976,1.319999987113257e-07
dodecan-1-ol,CCCCCCCCCCCCO,-4.9847464515,G5,3.899600000000004,58.92980000000006,1.0,1.0,1.0,10.0,0.0,0.0,0.0,0.0,20.23,83.54784803838828,2.758149818433293
copper thiocyanate,[Cu+].[S-]C#N,-4.8040109101,G4,0.01188,12.978,2.0,0.0,3.0,0.0,0.0,0.0,0.0,0.0,23.79,40.882517644920746,0.0
"O,O,S-tris(4-aminophenyl) thiophosphate",Nc1ccc(O[P](=S)(Oc2ccc(N)cc2)Oc3ccc(N)cc3)cc1,-5.3094071365,G1,4.1945000000000014,108.7322,7.0,3.0,8.0,6.0,3.0,0.0,0.0,3.0,105.75,156.28582741439678,1.876960613088822
2-[4-[2-[4-[2-(2-methylprop-2-enoyloxy)ethoxy]phenyl]propan-2-yl]phenoxy]ethyl 2-methylprop-2-enoate,CC(=C)C(=O)OCCOc1ccc(cc1)C(C)(C)c2ccc(OCCOC(=O)C(C)=C)cc2,-5.3792018861,G1,5.0087000000000055,127.54800000000009,6.0,0.0,6.0,12.0,2.0,0.0,0.0,2.0,71.06,195.36064809525664,1.876568332885611
"(3aR,5aS,9aS,9bR)-3a,6,6,9a-tetramethyl-dodecahydronaphtho[2,1-b]furan",CC1(C)CCC[C@@]2(C)[C@H]1CC[C@@]3(C)OCC[C@H]23,-5.0994877858,G3,4.408000000000004,70.92700000000006,1.0,0.0,1.0,0.0,0.0,3.0,3.0,3.0,9.23,106.30943451269786,1.9773447987737445
"3a,6,6,9a-tetramethyl-dodecahydronaphtho[2,1-b]furan",CC1(C)CCCC2(C)C1CCC3(C)OCCC23,-5.0994877858,G1,4.408000000000004,70.92700000000006,1.0,0.0,1.0,0.0,0.0,3.0,3.0,3.0,9.23,106.30943451269786,1.9773447987737445
[(1E)-2-(diethoxymethyl)hept-1-en-1-yl]benzene,CCCCC\C(=C/c1ccccc1)C(OCC)OCC,-5.1720565184,G1,5.049400000000005,85.60100000000007,2.0,0.0,2.0,10.0,1.0,0.0,0.0,1.0,18.46,123.34819591908575,2.837712550013319
dilanthanum(3+) ion tricarbonate,[La+3].[La+3].[O-]C([O-])=O.[O-]C([O-])=O.[O-]C([O-])=O,-5.3958921156,G3,-7.341000000000001,16.188,9.0,0.0,11.0,0.0,0.0,0.0,0.0,0.0,189.57,132.9381735056008,-2.699999991e-08
"N,N'-(3,3'-dimethylbiphenyl-4,4'-diyl)bis(3-oxobutanamide)",CC(=O)CC(=O)Nc1ccc(cc1C)c2ccc(NC(=O)CC(C)=O)c(C)c2,-5.3250182341,G1,3.805640000000002,109.20740000000004,4.0,2.0,6.0,7.0,2.0,0.0,0.0,2.0,92.34,163.8837312369183,2.167824804173692
N-(4-acetamidophenyl)-3-hydroxy-2-naphthamide,CC(=O)Nc1ccc(NC(=O)c2cc3ccccc3cc2O)cc1,-5.2503495118,G1,3.7561000000000018,94.31170000000002,3.0,3.0,5.0,3.0,3.0,0.0,0.0,3.0,78.43,138.48199051998566,1.8163754134937584
N-(5-chloro-2-methylphenyl)-3-hydroxynaphthalene-2-carboxamide,Cc1ccc(Cl)cc1NC(=O)c2cc3ccccc3cc2O,-5.2385590319,G1,4.759520000000003,89.75500000000002,2.0,2.0,4.0,2.0,3.0,0.0,0.0,3.0,49.33,132.7089303488189,1.9799228725999736
neodymium(3+) ion trihydroxide,[OH-].[OH-].[OH-].[Nd+3],-5.0353430041000005,G1,-0.5303999999999999,5.8074,3.0,0.0,4.0,0.0,0.0,0.0,0.0,0.0,90.0,56.84024526198126,-0.0
"(1,3-benzothiazol-2-ylsulfanyl)(tert-butyl)amine",CC(C)(C)NSc1sc2ccccc2n1,-5.136722389,G3,3.691500000000002,68.36570000000003,4.0,1.0,4.0,2.0,2.0,0.0,0.0,2.0,24.92,98.2411970797784,2.156268970061197
hydrogen telluride,[Te],-4.875401753,G1,-0.3808,5.754,0.0,0.0,1.0,0.0,0.0,0.0,0.0,0.0,0.0,24.21910350452877,0.0
"3,7-dimethyloct-6-en-1-yl butyrate",CCCC(=O)OCCC(C)CCC=C(C)C,-5.142612080899999,G1,4.102300000000004,68.31300000000005,2.0,0.0,2.0,8.0,0.0,0.0,0.0,0.0,26.3,100.06896281235184,3.466508956517113
3-hydroxy-N-(4-methoxyphenyl)-2-naphthamide,COc1ccc(NC(=O)c2cc3ccccc3cc2O)cc1,-5.2632246549,G1,3.806300000000002,86.56000000000003,3.0,2.0,4.0,3.0,3.0,0.0,0.0,3.0,58.56,127.51920935144416,1.8882040440388013
4-{1-[4-(cyanooxy)phenyl]ethyl}phenyl cyanate,CC(c1ccc(OC#N)cc1)c2ccc(OC#N)cc2,-5.2179508887,G1,3.5581600000000018,72.88300000000004,4.0,0.0,4.0,4.0,2.0,0.0,0.0,2.0,66.03999999999999,116.96051560509864,2.15829451317712
dichlorodioctylstannane,CCCCCCCC[Sn](Cl)(Cl)CCCCCCCC,-5.4150412012,G1,7.627200000000006,93.82600000000008,0.0,0.0,3.0,14.0,0.0,0.0,0.0,0.0,0.0,132.8741941919422,3.362354107958663
didysprosium trioxide,[O--].[O--].[O--].[Dy+3].[Dy+3],-5.3675853562,G1,-0.3564,2.0595,0.0,0.0,5.0,0.0,0.0,0.0,0.0,0.0,85.5,90.86093538200886,-0.0
dodecanal,CCCCCCCCCCCC=O,-5.0614595476,G1,4.106200000000003,57.90800000000005,1.0,0.0,1.0,10.0,0.0,0.0,0.0,0.0,17.07,82.91513638623603,2.7919988397452453
"2-ethyl-2-methyl-1,3-dihydroperimidine",CCC1(C)Nc2cccc3cccc(N1)c23,-3.2477605654,G1,3.8034000000000017,69.88940000000004,2.0,2.0,2.0,1.0,2.0,0.0,1.0,3.0,24.06,95.66672932250546,2.275371791387488
2-(2-{2-[(2-ethylhexanoyl)oxy]ethoxy}ethoxy)ethyl 2-ethylhexanoate,CCCCC(CC)C(=O)OCCOCCOCCOC(=O)C(CC)CCCC,-5.4201521344,G3,4.538800000000004,110.16800000000008,6.0,0.0,6.0,19.0,0.0,0.0,0.0,0.0,71.06,171.18026054827345,3.5670471683942484
"2-(1-amino-9,10-dioxo-9,10-dihydroanthracen-2-yl)-5H,10H-anthra[2,3-d][1,3]oxazole-5,10-dione",Nc1c(ccc2C(=O)c3ccccc3C(=O)c12)c4oc5cc6C(=O)c7ccccc7C(=O)c6cc5n4,-5.4964129822,G1,4.627800000000002,130.4714,7.0,1.0,7.0,1.0,5.0,0.0,2.0,7.0,120.33,202.7324127621633,1.3854767929175256
N-(4-ethoxyphenyl)-3-hydroxy-2-naphthamide,CCOc1ccc(NC(=O)c2cc3ccccc3cc2O)cc1,-5.311540545400001,G1,4.196400000000002,91.17700000000004,3.0,2.0,4.0,4.0,3.0,0.0,0.0,3.0,58.56,133.88415146584074,1.835591438638756
"N-(5-chloro-2,4-dimethoxyphenyl)-3-hydroxy-2-naphthamide",COc1cc(OC)c(NC(=O)c2cc3ccccc3cc2O)cc1Cl,-5.3775405806,G1,4.468300000000003,98.12200000000004,4.0,2.0,6.0,4.0,3.0,0.0,0.0,3.0,67.79,149.3009629222293,1.9742074356788424
1-(4-methoxyphenyl)-2-[(3-methoxyphenyl)sulfanyl]ethan-1-one,COc1ccc(cc1)C(=O)CSc2cccc(OC)c2,-5.284725265,G5,3.6788000000000025,81.04250000000005,4.0,0.0,4.0,6.0,2.0,0.0,0.0,2.0,35.53,122.4599883675702,1.9651932716462863
"Anthra[2,1,9-mna]naphtho[2,3-h]acridine-5,10,15(16H)-trione",O=C1c2ccccc2C(=O)c3c4Nc5ccc6c7ccccc7C(=O)c8ccc(c4ccc13)c5c68,-5.506567842999999,G1,6.043300000000003,144.51669999999984,3.0,1.0,4.0,0.0,8.0,0.0,0.0,8.0,67.0,195.88629400285677,1.6719050411948804
"2,2'-oxybis(5,5-dimethyl-1,3,2-dioxaphosphinane) 2,2'-disulfide",CC1(C)CO[P](=S)(OC1)O[P]2(=S)OCC(C)(C)CO2,-5.393383394500001,G1,3.5980000000000025,81.02500000000005,7.0,0.0,9.0,2.0,0.0,2.0,2.0,2.0,46.150000000000006,124.3396501043009,1.980372875879224
1-methyl-4-(propan-2-yl)cyclohex-1-ene,CC(C)C1CCC(=CC1)C,-5.0103439368,G1,3.3888000000000025,45.93600000000002,0.0,0.0,0.0,1.0,0.0,0.0,1.0,1.0,0.0,64.32829587168553,2.418109175616248
"6-({bis[(5-carboxypentyl)amino]-1,3,5-triazin-2-yl}amino)hexanoic acid",OC(=O)CCCCCNc1nc(NCCCCCC(O)=O)nc(NCCCCCC(O)=O)n1,-2.5423613079,G4,3.0423,123.60750000000009,9.0,6.0,12.0,21.0,1.0,0.0,0.0,1.0,186.66,193.1761592290189,2.5054320900765363
2-methyloctyl prop-2-enoate,CC(C)CCCCCCCOC(=O)C=C,-5.1999126975,G1,3.712200000000003,63.69600000000005,2.0,0.0,2.0,9.0,0.0,0.0,0.0,0.0,26.3,93.70402069795529,3.0490128685991014
2-methylundecanal,CCCCCCCCCC(C)C=O,-5.151636178,G1,3.962100000000003,57.83800000000005,1.0,0.0,1.0,9.0,0.0,0.0,0.0,0.0,17.07,82.91513638623601,2.948167887963237
"4-{bis[4-(dimethylamino)phenyl]methyl}-N,N-dimethylaniline",CN(C)c1ccc(cc1)C(c2ccc(cc2)N(C)C)c3ccc(cc3)N(C)C,-5.458398412699999,G1,5.064800000000004,123.25200000000008,3.0,0.0,3.0,6.0,3.0,0.0,0.0,3.0,9.72,169.37968734301143,2.0443525259677444
yttrium,[Y],-4.8349877189,G1,-0.0025,0.0,0.0,0.0,1.0,0.0,0.0,0.0,0.0,0.0,0.0,32.752140139249285,0.0
"1,8-bis(phenylsulfanyl)-9,10-dihydroanthracene-9,10-dione",O=C1c2cccc(Sc3ccccc3)c2C(=O)c4c(Sc5ccccc5)cccc14,-5.517335043099999,G1,6.764400000000005,120.879,4.0,0.0,4.0,4.0,4.0,0.0,1.0,5.0,34.14,182.89600306377105,1.621491385053882
"4,4'-cyclohexane-1,1-diylbis(2-methylphenol)",Cc1cc(ccc1O)C2(CCCCC2)c3ccc(O)c(C)c3,-5.3715223063,G1,4.964840000000005,89.55260000000004,2.0,2.0,2.0,2.0,2.0,1.0,1.0,3.0,40.46,131.99067059159665,2.148016562416033
calcium 3-hydroxy-4-[(E)-2-(4-methyl-2-sulfonatophenyl)diazen-1-yl]naphthalene-2-carboxylate,[Ca++].Cc1ccc(N\N=C\2C(=O)C(=Cc3ccccc23)C([O-])=O)c(c1)[S]([O-])(=O)=O,-5.5486422223,G3,0.0505199999999999,99.48890000000002,8.0,1.0,10.0,4.0,2.0,0.0,1.0,3.0,138.79,190.2597184734787,2.8033304522669224e-06
"1,4-bis(2-ethylhexyl) (2E)-but-2-enedioate",CCCCC(CC)COC(=O)\C=C\C(=O)OCC(CC)CCCC,-5.4565752567,G2,5.061800000000005,97.67000000000009,4.0,0.0,4.0,14.0,0.0,0.0,0.0,0.0,52.60000000000001,147.53368282828214,4.039404235710348
"2,2-dimethylpropane-1,3-diyl dibenzoate",CC(C)(COC(=O)c1ccccc1)COC(=O)c2ccccc2,-5.4227803586,G3,3.726600000000003,87.23000000000005,4.0,0.0,4.0,6.0,2.0,0.0,0.0,2.0,52.6,135.59322678543856,1.823626740336025
calcium bis(metaphosphate),[Ca++].O[PH]([O-])=O.O[PH]([O-])=O,-5.253149755,G1,-2.9234000000000004,28.1946,4.0,2.0,9.0,0.0,0.0,0.0,0.0,0.0,120.72,82.42893374467437,-7.199999951999999e-08
(ethoxymethoxy)cyclododecane,CCOCOC1CCCCCCCCCCC1,-5.335319967699999,G1,4.670300000000005,72.15300000000006,2.0,0.0,2.0,4.0,0.0,1.0,1.0,1.0,18.46,107.06969993486663,2.170986572017207
"2,6-dibromo-4-[2-(3,5-dibromo-4-hydroxyphenyl)propan-2-yl]phenol",CC(C)(c1cc(Br)c(O)c(Br)c1)c2cc(Br)c(O)c(Br)c2,-5.6941064111,G4,6.4737000000000045,99.1416,2.0,2.0,6.0,2.0,2.0,0.0,0.0,2.0,40.46,156.64198159570824,2.614907029381243
bis(3-methylbutyl) phthalate,CC(C)CCOC(=O)c1ccccc1C(=O)OCCC(C)C,-5.444898910599999,G1,4.092400000000004,85.91700000000006,4.0,0.0,4.0,8.0,1.0,0.0,0.0,1.0,52.60000000000001,132.3608431513576,2.6763110482800374
zinc bis(diethyldithiocarbamate),[Zn++].CCN(CC)C([S-])=S.CCN(CC)C([S-])=S,-5.5333331166,G1,2.317500000000001,85.76800000000004,4.0,0.0,7.0,4.0,0.0,0.0,0.0,0.0,6.48,140.46025041511305,-2.1777777428641986e-07
9H-carbazole,[nH]1c2ccccc2c3ccccc13,-5.2104276195,G5,3.3211000000000013,55.804700000000025,0.0,1.0,1.0,0.0,3.0,0.0,0.0,3.0,15.79,76.00389260398168,2.642438259907001
"1,2-dicyclohexyl benzene-1,2-dicarboxylate",O=C(OC1CCCCC1)c2ccccc2C(=O)OC3CCCCC3,-5.5126055421,G3,4.665600000000004,91.01900000000006,4.0,0.0,4.0,4.0,1.0,2.0,2.0,3.0,52.60000000000001,143.07906507309238,1.6657948843748238
Prokan,CC(=O)OC1(CCC2C3CCC4=CC(=O)CCC4(C)C3CCC12C)C(C)=O,-5.5668107327,G1,4.409200000000004,101.88800000000006,4.0,0.0,4.0,2.0,0.0,3.0,4.0,4.0,60.440000000000005,161.65316142789194,1.7018010291608856
"(9Z)-N,N-bis(2-hydroxyethyl)octadec-9-enamide",CCCCCCCC/C=C/CCCCCCCC(=O)N(CCO)CCO,-5.567720212,G1,4.837100000000006,110.20360000000008,3.0,2.0,4.0,19.0,0.0,0.0,0.0,0.0,60.77000000000001,161.22325567261325,3.3930235634029
"1,3-diethyl 2-({4-[3-ethoxy-2-(ethoxycarbonyl)-3-oxoprop-1-en-1-yl]phenyl}methylidene)propanedioate",CCOC(=O)C(=Cc1ccc(cc1)C=C(C(=O)OCC)C(=O)OCC)C(=O)OCC,-5.6216352692,G1,2.705800000000001,108.92800000000004,8.0,0.0,8.0,10.0,1.0,0.0,0.0,1.0,105.20000000000005,174.99154020367683,3.216129253403321
2-phenylethyl (2E)-3-phenylprop-2-enoate,O=C(OCCc1ccccc1)/C=C/c2ccccc2,-5.4019396274,G3,3.4857000000000022,76.58100000000005,2.0,0.0,2.0,5.0,2.0,0.0,0.0,2.0,26.3,112.89867219491045,1.7467859348215091
N-(2-hydroxyethyl)octadecanamide,CCCCCCCCCCCCCCCCCC(=O)NCCO,-5.5152815814,G1,5.356400000000005,99.64150000000008,2.0,2.0,3.0,18.0,0.0,0.0,0.0,0.0,49.33,144.17876923721298,3.036229911974311
N-(4-chlorophenyl)-3-hydroxy-2-naphthamide,Oc1cc2ccccc2cc1C(=O)Nc3ccc(Cl)cc3,-5.4738386427,G1,4.451100000000001,85.018,2.0,2.0,4.0,2.0,3.0,0.0,0.0,3.0,49.33,126.34398823442233,1.9342579478836075
2-bromo-N-[4-chloro-2-(2-fluorobenzoyl)phenyl]acetamide,Fc1ccccc1C(=O)c2cc(Cl)ccc2NC(=O)CBr,-5.5693457861,G3,4.043500000000002,83.7082,2.0,1.0,6.0,4.0,2.0,0.0,0.0,2.0,46.17,133.79257928789568,2.468304659305612
Cedryl acetate,C[C@@H]1CC[C@H]2C(C)(C)C3CC12CCC3(C)OC(C)=O,-5.4266410391,G1,4.180600000000004,75.61400000000006,2.0,0.0,2.0,1.0,0.0,3.0,3.0,3.0,26.3,116.83589872713824,1.9867717135728291
12-hydroxyoctadecanoic acid,CCCCCCC(O)CCCCCCCCCCC(O)=O,-5.4883700889,G1,5.303300000000005,88.57160000000007,2.0,2.0,3.0,16.0,0.0,0.0,0.0,0.0,57.53,130.6932565770077,3.119176987458335
"Bisbenzimidazo[2,1-b:1',2'-j]benzo[lmn][3,8]phenanthroline-6,9-dione",O=C1n2c3ccccc3nc2c4ccc5c6nc7ccccc7n6C(=O)c8ccc1c4c58,-5.633055848200001,G2,4.344000000000002,126.38400000000004,6.0,0.0,6.0,0.0,8.0,0.0,0.0,8.0,68.74000000000001,177.8174116107139,1.7350878258692146
barium 3-hydroxy-4-[(4-methyl-2-sulphonatophenyl)azo]-2-naphthoate,[Ba++].Cc1ccc(N\N=C\2C(=O)C(=Cc3ccccc23)C([O-])=O)c(c1)[S]([O-])(=O)=O,-5.7351471063,G2,0.0505199999999999,99.48890000000002,8.0,1.0,10.0,4.0,2.0,0.0,1.0,3.0,138.79,200.7200910365774,2.8033304522669224e-06
4-{2-[4-(cyanooxy)phenyl]propan-2-yl}phenyl cyanate,CC(C)(c1ccc(OC#N)cc1)c2ccc(OC#N)cc2,-5.4695583775,G1,3.732260000000003,77.49400000000004,4.0,0.0,4.0,4.0,2.0,0.0,0.0,2.0,66.03999999999999,123.32545771949523,2.278812873453361
lauronitrile,CCCCCCCCCCCC#N,-5.2899699473,G1,4.430880000000004,57.45700000000005,1.0,0.0,1.0,9.0,0.0,0.0,0.0,0.0,23.79,83.14619396766098,2.8036102232171927
1-chloro-4-(4-chlorobenzenesulfonyl)benzene,Clc1ccc(cc1)[S](=O)(=O)c2ccc(Cl)cc2,-5.5236360799,G1,3.826200000000002,68.35580000000003,2.0,0.0,5.0,2.0,2.0,0.0,0.0,2.0,34.14,109.72042816111092,2.4961289671937283
"1-N,4-N-bis(5-methylhexan-2-yl)benzene-1,4-diamine",CC(C)CCC(C)Nc1ccc(NC(C)CCC(C)C)cc1,-5.5751336546,G2,6.159800000000006,100.75540000000008,2.0,2.0,2.0,10.0,1.0,0.0,0.0,1.0,24.06,137.64031708826553,2.386947201191402
2-cyclododecylpropan-1-ol,CC(CO)C1CCCCCCCCCCC1,-5.451794108500001,G1,4.535700000000005,70.52680000000007,1.0,1.0,1.0,2.0,0.0,1.0,1.0,1.0,20.23,101.63684322804886,2.297380987578415
methyl undec-10-enoate,COC(=O)CCCCCCCCC=C,-5.3975153521,G1,3.4662000000000024,59.14900000000004,2.0,0.0,2.0,9.0,0.0,0.0,0.0,0.0,26.3,87.33907858355865,2.984750350744548
[(oxobismuthanyl)oxy]bismuthanone,[O--].[O--].[O--].[Bi+3].[Bi+3],-5.777924821699999,G4,-1.118,13.5675,0.0,0.0,5.0,0.0,0.0,0.0,0.0,0.0,85.5,68.30725322632853,-0.0
Estrone,C[C@]12CC[C@H]3[C@@H](CCc4cc(O)ccc34)[C@@H]1CCC2=O,-5.5511481213,G2,3.817400000000003,77.73080000000004,2.0,1.0,2.0,0.0,1.0,2.0,3.0,4.0,37.3,119.74897088390838,1.7284412573952104