Name,SMILES,Solubility,Group,MolLogP,MolMR,NumHAcceptors,NumHDonors,NumHeteroatoms,NumRotatableBonds,NumAromaticRings,NumSaturatedRings,NumAliphaticRings,RingCount,TPSA,LabuteASA,BalabanJ
"2,6-di-tert-butyl-4-methylphenol",Cc1cc(c(O)c(c1)C(C)(C)C)C(C)(C)C,-5.462311288,G5,4.295620000000003,70.24380000000005,1.0,1.0,1.0,0.0,1.0,0.0,0.0,1.0,20.23,99.51011590126242,3.507848337934589
"2,4,6-tris(butan-2-yl)phenol",CCC(C)c1cc(C(C)CC)c(O)c(c1)C(C)CC,-5.5497933448,G2,5.932700000000007,84.22480000000006,1.0,1.0,1.0,6.0,1.0,0.0,0.0,1.0,20.23,118.60494224445226,3.374419947424018
N-phenylnaphthalen-2-amine,N(c1ccccc1)c2ccc3ccccc3c2,-5.4959148461,G1,4.583400000000003,73.67270000000003,1.0,1.0,1.0,2.0,3.0,0.0,0.0,3.0,12.03,100.72002404090424,1.961246717577175
oxoyttrium,O=[Y],-5.1756981481,G1,-0.1213,0.6865,1.0,0.0,2.0,0.0,0.0,0.0,0.0,0.0,17.07,33.1021923423365,2.0
yttrium oxide,[O--].[O--].[O--].[Y+3].[Y+3],-5.5086432075,G1,-0.3614,2.0595,0.0,0.0,5.0,0.0,0.0,0.0,0.0,0.0,85.5,80.578062803838,-0.0
"2,6,10-trimethylundec-9-enal",CC(CCCC(C)C=O)CCC=C(C)C,-5.496890424,G1,4.3742000000000045,66.90800000000004,1.0,0.0,1.0,8.0,0.0,0.0,0.0,0.0,17.07,94.95541758284496,3.446713603601744
"N-(1,4-dimethylpentyl)-N'-phenylbenzene-1,4-diamine",CC(C)CCC(C)Nc1ccc(Nc2ccccc2)cc1,-5.6248375610000005,G1,5.666800000000005,93.32340000000006,2.0,2.0,2.0,7.0,2.0,0.0,0.0,2.0,24.06,128.14281649355337,1.8681683313643485
(5Z)-cyclohexadec-5-en-1-one,O=C1CCCCCCCCCC\C=C/CCC1,-5.560732278400001,G3,5.196600000000005,74.16800000000005,1.0,0.0,1.0,0.0,0.0,0.0,1.0,1.0,17.07,106.67947065810895,2.187739377081556
"17-hydroxy-3-methoxyestra-2,5(10)-diene-17-carbonitrile",COC1=CCC2=C(CCC3C2CCC4(C)C3CCC4(O)C#N)C1,-5.6832424476,G1,4.098080000000003,88.19380000000005,3.0,1.0,3.0,1.0,0.0,2.0,4.0,4.0,53.25,138.57097918605132,1.6278831867178505
"Dodecahydro-3,8,8,11a-tetramethyl-5H-3,5a-epoxynaphth(2,1-c)oxepin",CC1(C)CCCC2(C)C1CCC34COC(C)(CCC23)O4,-5.6453848366,G1,4.524600000000004,79.36000000000007,2.0,0.0,2.0,0.0,0.0,4.0,4.0,4.0,18.46,123.14703281746876,1.72837577139478
1-methyl-4-(propan-2-yl)cyclohexane,CC1CCC(CC1)C(C)C,-5.3545731075,G3,3.468700000000003,45.96000000000002,0.0,0.0,0.0,1.0,0.0,1.0,1.0,1.0,0.0,65.01789890386979,2.259902596224093
(2R)-heptan-2-yl 2-[(5-chloroquinolin-8-yl)oxy]acetate (2S)-heptan-2-yl 2-[(5-chloroquinolin-8-yl)oxy]acetate,CCCCCC(C)OC(=O)COc1ccc(Cl)c2cccnc12,-5.7479695323,G5,4.779000000000004,91.94400000000006,4.0,0.0,5.0,8.0,2.0,0.0,0.0,2.0,48.42,141.30907344768733,1.908833851857749
2-[(2-hydroxyethyl)(octadecyl)amino]ethan-1-ol,CCCCCCCCCCCCCCCCCCN(CCO)CCO,-5.7752741917,G1,5.534500000000007,110.15760000000007,3.0,2.0,3.0,21.0,0.0,0.0,0.0,0.0,43.7,157.75133660475376,3.1327607939821114
(10Z)-1-oxacycloheptadec-10-en-2-one,O=C1CCCCCCC\C=C/CCCCCCO1,-5.629397554600001,G1,4.780600000000004,75.50300000000006,2.0,0.0,2.0,0.0,0.0,0.0,1.0,1.0,26.3,111.79301588761584,2.168809346986403
"methyl 2-amino-4-[(2,5-dichlorophenyl)carbamoyl]benzoate",COC(=O)c1ccc(NC(=O)c2cc(Cl)ccc2Cl)cc1N,-5.7900649855,G1,3.6145000000000014,86.60910000000001,4.0,2.0,7.0,3.0,2.0,0.0,0.0,2.0,81.42,136.51619843272934,2.236680792383185
1-{[3-(triethoxysilyl)propyl]sulfanyl}octan-1-one,CCCCCCCC(=O)SCCC[Si](OCC)(OCC)OCC,-5.8326804614,G2,5.045200000000005,100.89700000000008,5.0,0.0,6.0,16.0,0.0,0.0,0.0,0.0,44.760000000000005,147.9545655042068,3.9259474554365448
"1,1':3',1''-terphenyl-2'-ol",Oc1c(cccc1c2ccccc2)c3ccccc3,-5.6839101049,G1,4.726200000000004,78.97880000000005,1.0,1.0,1.0,2.0,3.0,0.0,0.0,3.0,20.23,112.33982528382106,2.1529889837491285
"(5E)-5-[(4-chlorophenyl)methylidene]-2,2-dimethylcyclopentan-1-one",CC1(C)CC\C(=C/c2ccc(Cl)cc2)C1=O,-5.6715911936,G1,4.112500000000003,67.45100000000004,1.0,0.0,2.0,1.0,1.0,1.0,1.0,2.0,17.07,101.1202941758818,2.2641797357477587
"(1-methylethyl)-1,1'-biphenyl",CC(C)c1ccc(cc1)c2ccccc2,-5.609857774299999,G5,4.477000000000004,65.96700000000004,0.0,0.0,0.0,2.0,2.0,0.0,0.0,2.0,0.0,91.58332366875082,2.3212483183989283
"4-[(4-amino-3,5-diethylphenyl)methyl]-2,6-diethylaniline",CCc1cc(Cc2cc(CC)c(N)c(CC)c2)cc(CC)c1N,-5.8485879471,G1,4.691400000000003,102.02680000000004,2.0,2.0,2.0,6.0,2.0,0.0,0.0,2.0,52.04,140.45275774915592,2.425750084259508
2-[4-(2-{4-[2-(prop-2-enoyloxy)ethoxy]phenyl}propan-2-yl)phenoxy]ethyl prop-2-enoate,CC(C)(c1ccc(OCCOC(=O)C=C)cc1)c2ccc(OCCOC(=O)C=C)cc2,-5.999481603,G1,4.228500000000004,118.31400000000006,6.0,0.0,6.0,12.0,2.0,0.0,0.0,2.0,71.06,182.63076386646344,1.897749061133072
"Benzenamine, N-phenyl-, styrenated",CC(c1ccccc1)c2ccc(Nc3ccc(cc3)C(C)c4ccccc4)cc2,-5.9641687617,G1,7.733800000000007,124.08470000000004,1.0,1.0,1.0,6.0,4.0,0.0,0.0,4.0,12.03,173.61231637888346,1.4287919863650238
2-ethylhexyl benzoate,CCCCC(CC)COC(=O)c1ccccc1,-5.767784581,G1,4.059800000000004,70.03050000000005,2.0,0.0,2.0,7.0,1.0,0.0,0.0,1.0,26.3,103.9909494786171,2.362420164809228
"3,3,5-trimethylcyclohexyl 2-hydroxybenzoate",CC1CC(CC(C)(C)C1)OC(=O)c2ccccc2O,-5.816819421799999,G1,3.763800000000004,74.10630000000005,3.0,1.0,3.0,2.0,1.0,1.0,1.0,2.0,46.53,114.1442941916805,2.05082105408112
"methyl 4-[(2,5-dichlorophenyl)carbamoyl]-2-nitrobenzoate",COC(=O)c1ccc(cc1[N+]([O-])=O)C(=O)Nc2cc(Cl)ccc2Cl,-5.965154646,G1,3.940500000000002,88.85110000000002,5.0,1.0,9.0,4.0,2.0,0.0,0.0,2.0,98.54,145.82928345821642,2.3613597422481107
"3,7-dimethyloct-6-en-1-yl (2E)-2-methylbut-2-enoate",C\C=C(/C)C(=O)OCCC(C)CCC=C(C)C,-5.7917926889,G1,4.268400000000004,72.83600000000006,2.0,0.0,2.0,7.0,0.0,0.0,0.0,0.0,26.3,105.7443018945642,3.679636507051684
"3,3,4,4,5,5,6,6,7,7,8,8,8-tridecafluorooctyl 2-methylprop-2-enoate",CC(=C)C(=O)OCCC(F)(F)C(F)(F)C(F)(F)C(F)(F)C(F)(F)C(F)(F)F,-6.058168845700001,G3,5.234600000000002,61.18,2.0,0.0,15.0,8.0,0.0,0.0,0.0,0.0,26.3,141.49103882159966,5.8047502879384645
"1-(4-{[4-(2,5-dioxo-2,5-dihydro-1H-pyrrol-1-yl)phenyl]methyl}phenyl)-2,5-dihydro-1H-pyrrole-2,5-dione",O=C1C=CC(=O)N1c2ccc(Cc3ccc(cc3)N4C(=O)C=CC4=O)cc2,-5.9980085438,G1,2.1362,98.95600000000005,4.0,0.0,6.0,4.0,2.0,0.0,2.0,4.0,74.76,154.5478637242853,1.465397906726139
tetradecan-1-ol,CCCCCCCCCCCCCCO,-5.787142557,G5,4.679800000000005,68.16380000000005,1.0,1.0,1.0,12.0,0.0,0.0,0.0,0.0,20.23,96.2777322671815,2.8079257388805243
diphenyl 4-(propan-2-yl)phenyl phosphate phenyl bis[4-(propan-2-yl)phenyl] phosphate triphenyl phosphate tris[4-(propan-2-yl)phenyl] phosphate,CC(C)c1ccc(O[P](=O)(Oc2ccc(cc2)C(C)C)Oc3ccc(cc3)C(C)C)cc1,-6.1371343954,G3,8.701700000000004,131.08350000000002,4.0,0.0,5.0,9.0,3.0,0.0,0.0,3.0,44.760000000000005,191.72031692419023,1.8665041806686111
trichloro(octyl)stannane,CCCCCCCC[Sn](Cl)(Cl)Cl,-6.0107803553,G1,5.002200000000004,61.496000000000045,0.0,0.0,4.0,7.0,0.0,0.0,0.0,0.0,0.0,90.97638677574533,3.009208079324262
"N-(1,3-benzothiazol-2-ylsulfanyl)cyclohexanamine",C1CCC(CC1)NSc2sc3ccccc3n2,-5.9171426801,G5,4.225700000000003,75.48570000000004,4.0,1.0,4.0,3.0,2.0,1.0,1.0,3.0,24.92,109.96525015504238,1.6372019750951292
copper,[Cu],-5.2979382401,G4,-0.0025,0.0,0.0,0.0,1.0,0.0,0.0,0.0,0.0,0.0,0.0,17.964098032124472,0.0
N-(2-ethoxyphenyl)-N'-(2-ethylphenyl)ethanediamide,CCOc1ccccc1NC(=O)C(=O)Nc2ccccc2CC,-6.0175466725,G1,3.2249000000000017,90.69040000000004,3.0,2.0,5.0,5.0,2.0,0.0,0.0,2.0,67.42999999999999,135.2144638087512,2.074000729231524
oxacyclohexadecan-2-one,O=C1CCCCCCCCCCCCCCO1,-5.9037897228,G4,4.614500000000004,70.98000000000006,2.0,0.0,2.0,0.0,0.0,1.0,1.0,1.0,26.3,106.1176768054035,2.1124110421554065
"2,2'-vinylenebis[5-methylbenzoxazole]",Cc1ccc2oc(\C=C\c3oc4ccc(C)cc4n3)nc2c1,-6.0004819491,G1,4.756240000000004,86.42000000000002,4.0,0.0,4.0,2.0,4.0,0.0,0.0,4.0,52.06,126.64994630448028,1.6826991962173294
aluminium(3+) ion tris(N-nitroso-N-oxidoaniline),[Al+3].[O-]N(N=O)c1ccccc1.[O-]N(N=O)c2ccccc2.[O-]N(N=O)c3ccccc3,-6.1946491089,G1,4.635800000000003,120.003,9.0,0.0,13.0,6.0,3.0,0.0,0.0,3.0,167.19,186.94968860969863,4.28571424877551e-07
"N,N-diethyl-4-[(E)-2-phenyldiazen-1-yl]aniline",CCN(CC)c1ccc(cc1)N=Nc2ccccc2,-5.9821152675,G1,4.948200000000004,80.62100000000004,3.0,0.0,3.0,5.0,2.0,0.0,0.0,2.0,27.96,114.1548772978399,2.086339079358203
neodymium(3+) ion trifluoride,[F-].[F-].[F-].[Nd+3],-5.8937682366,G4,-8.988,0.0,0.0,0.0,4.0,0.0,0.0,0.0,0.0,0.0,0.0,54.58397386994124,-0.0
"2-ethyl-9,10-dihydroanthracene-9,10-dione",CCc1ccc2C(=O)c3ccccc3C(=O)c2c1,-5.9842424969,G1,3.0244000000000018,69.12700000000002,2.0,0.0,2.0,1.0,2.0,0.0,1.0,3.0,34.14,105.26547882970574,2.2684291257338125
(4-methyl-4-phenylpent-1-en-2-yl)benzene,CC(C)(CC(=C)c1ccccc1)c2ccccc2,-6.0118424704,G1,5.067700000000004,79.56100000000005,0.0,0.0,0.0,4.0,2.0,0.0,0.0,2.0,0.0,109.9885469797564,2.1651245395776497
disodium oxotitaniumbis(olate),[O--].[O--].[O--].[Na+].[Na+].[Ti+4],-5.805457995399999,G1,-6.3509,2.0595,0.0,0.0,6.0,0.0,0.0,0.0,0.0,0.0,85.5,95.64367090509276,-0.0
"1,4-dimethyl 2-[(E)-2-{2-oxo-1-[(2-oxo-2,3-dihydro-1H-1,3-benzodiazol-5-yl)carbamoyl]propyl}diazen-1-yl]benzene-1,4-dicarboxylate",COC(=O)c1ccc(C(=O)OC)c(c1)N=NC(C(C)=O)C(=O)Nc2ccc3NC(=O)Nc3c2,-6.3140693713,G1,2.1093999999999995,115.65510000000002,9.0,3.0,12.0,7.0,3.0,0.0,0.0,3.0,172.14,185.54984816175957,1.8983317460140268
2-decyloxirane,CCCCCCCCCCC1CO1,-5.923156849500001,G1,3.916000000000003,56.967000000000056,1.0,0.0,1.0,9.0,0.0,1.0,1.0,1.0,12.53,82.86132836216991,1.6344124392929746
2-dodecyloxirane,CCCCCCCCCCCCC1CO1,-5.9846848009,G3,4.696200000000004,66.20100000000006,1.0,0.0,1.0,11.0,0.0,1.0,1.0,1.0,12.53,95.59121259096314,1.6182570532012817
"Decahydrospiro[furan-2(3H),5'-[4,7]methano[5h]indene]",C1COC2(C1)CC3CC2C4CCCC34,-5.941561120199999,G1,2.9917000000000016,54.962000000000046,1.0,0.0,1.0,0.0,0.0,4.0,4.0,4.0,9.23,86.20877701597881,1.6878333465948456
ethenyl[(ethenyldimethylsilyl)oxy]dimethylsilane,C[Si](C)(O[Si](C)(C)C=C)C=C,-5.9544825522,G1,2.863600000000001,56.44300000000003,1.0,0.0,3.0,4.0,0.0,0.0,0.0,0.0,9.23,72.0368165423149,4.233343581482011
"2-[1-(2-hydroxy-3,5-dimethylphenyl)-2-methylpropyl]-4,6-dimethylphenol",CC(C)C(c1cc(C)cc(C)c1O)c2cc(C)cc(C)c2O,-6.1673406199,G1,5.119380000000006,91.84260000000005,2.0,2.0,2.0,3.0,2.0,0.0,0.0,2.0,40.46,132.99650174512587,2.7251183452454715
"1,3-dimethyl 5-[(E)-2-{2-oxo-1-[(2-oxo-2,3-dihydro-1H-1,3-benzodiazol-5-yl)carbamoyl]propyl}diazen-1-yl]benzene-1,3-dicarboxylate",COC(=O)c1cc(cc(c1)C(=O)OC)N=NC(C(C)=O)C(=O)Nc2ccc3NC(=O)Nc3c2,-6.3777384512,G1,2.1093999999999995,115.65510000000002,9.0,3.0,12.0,7.0,3.0,0.0,0.0,3.0,172.14,185.54984816175957,1.8696961800407863
"5,7-dihydroxy-2-(3-hydroxy-4-methoxyphenyl)-4H-chromen-4-one",COc1ccc(cc1O)C2=CC(=O)c3c(O)cc(O)cc3O2,-6.1987525576,G1,2.5854,79.46640000000001,6.0,3.0,6.0,2.0,3.0,0.0,0.0,3.0,100.13,123.99768938184054,2.241391565590648
"3,3,4,4,5,5,6,6,7,7,8,8,8-tridecafluorooctyl prop-2-enoate",FC(F)(F)C(F)(F)C(F)(F)C(F)(F)C(F)(F)C(F)(F)CCOC(=O)C=C,-6.354159334099999,G1,4.844500000000002,56.56300000000002,2.0,0.0,15.0,8.0,0.0,0.0,0.0,0.0,26.3,135.12609670720306,5.846860266638834
bis(8-methylnonyl) phenyl phosphite,CC(C)CCCCCCCOP(OCCCCCCCC(C)C)Oc1ccccc1,-6.382029914199999,G3,9.3187,130.97400000000005,3.0,0.0,4.0,20.0,1.0,0.0,0.0,1.0,27.69,187.83057725120472,2.1678707463877176
oxotitanium; sulfuric acid,O[S](O)(=O)=O.O=[Ti],-5.9613942775,G5,-0.7740999999999998,14.8639,3.0,2.0,7.0,0.0,0.0,0.0,0.0,0.0,91.67,52.02806713260095,0.0
"2-methyl-9,10-dihydroanthracene-9,10-dione",Cc1ccc2C(=O)c3ccccc3C(=O)c2c1,-6.1171462485,G1,2.770420000000001,64.48600000000002,2.0,0.0,2.0,0.0,2.0,0.0,1.0,3.0,34.14,98.90053671530912,2.3304909398632216
"1-N,4-N-diphenylbenzene-1,4-diamine",N(c1ccccc1)c2ccc(Nc3ccccc3)cc2,-6.239449641499999,G1,5.173800000000004,85.89140000000003,2.0,2.0,2.0,4.0,3.0,0.0,0.0,3.0,24.06,118.64531589884116,1.6862843995225325
"2,6-dimethyl naphthalene-2,6-dicarboxylate",COC(=O)c1ccc2cc(ccc2c1)C(=O)OC,-6.211736201,G3,2.4130000000000003,66.62700000000002,4.0,0.0,4.0,2.0,2.0,0.0,0.0,2.0,52.60000000000001,104.1229707679199,2.48058883057574
"1,4-dihydroxy-9,10-dihydroanthracene-9,10-dione",Oc1ccc(O)c2C(=O)c3ccccc3C(=O)c12,-6.2534935167,G5,1.8732,63.07860000000002,4.0,2.0,4.0,0.0,2.0,0.0,1.0,3.0,74.6,102.12406210530456,2.4094150669454457
"1,2-bis(propan-2-yl)naphthalene",CC(C)c1ccc2ccccc2c1C(C)C,-6.2301136188,G5,5.086600000000004,72.12600000000005,0.0,0.0,0.0,2.0,2.0,0.0,0.0,2.0,0.0,98.3027203376118,2.789289725212396
dioctylstannanone,CCCCCCCC[Sn](=O)CCCCCCCC,-6.4785159933,G3,6.129400000000007,82.80650000000007,1.0,0.0,2.0,14.0,0.0,0.0,0.0,0.0,17.07,122.24357046268518,3.124621332555885
"4-{4-[4-(4-methoxyphenyl)piperazin-1-yl]phenyl}-4,5-dihydro-1H-1,2,4-triazol-5-one",COc1ccc(cc1)N2CCN(CC2)c3ccc(cc3)N4C=NNC4=O,-6.4889092646,G1,1.8958,101.60470000000004,6.0,1.0,7.0,4.0,3.0,1.0,1.0,4.0,66.39,150.98608705794356,1.4101444851379632
"1-(4-chlorophenyl)-3-(3,4-dichlorophenyl)urea",Clc1ccc(NC(=O)Nc2ccc(Cl)c(Cl)c2)cc1,-6.4577264198,G2,5.290800000000002,80.5554,1.0,2.0,6.0,2.0,2.0,0.0,0.0,2.0,41.13,125.02448458786247,2.0064249016293974
"1,1-bis(tert-butylperoxy)-3,3,5-trimethylcyclohexane",CC1CC(C)(C)CC(C1)(OOC(C)(C)C)OOC(C)(C)C,-6.4806607684,G5,5.022300000000005,83.37300000000008,4.0,0.0,4.0,4.0,0.0,1.0,1.0,1.0,36.92,129.88526525415017,2.87240301325283
"(1R,4E,9S)-4,11,11-trimethyl-8-methylidenebicyclo[7.2.0]undec-4-ene",C\C1=C/CCC(=C)[C@H]2CC(C)(C)[C@@H]2CC1,-6.3372616649,G3,4.7252000000000045,66.74300000000005,0.0,0.0,0.0,0.0,0.0,1.0,2.0,2.0,0.0,94.45757225795508,2.119623126378003
"1,1'-(2,3-dimethylbutane-2,3-diyl)dibenzene",CC(C)(c1ccccc1)C(C)(C)c2ccccc2,-6.4741688972,G1,4.942000000000005,78.93600000000005,0.0,0.0,0.0,3.0,2.0,0.0,0.0,2.0,0.0,110.67815001194066,2.466536212709305
2-(benzyloxy)naphthalene,C(Oc1ccc2ccccc2c1)c3ccccc3,-6.4776739787,G3,4.418800000000003,74.72200000000004,1.0,0.0,1.0,3.0,3.0,0.0,0.0,3.0,9.23,106.6486492011997,1.78737619501489
"6-Bromo-3-methyl-3H-dibenz[f,ij]isoquinoline-2,7-dione",CN1C(=O)C=C2c3ccccc3C(=O)c4c(Br)ccc1c24,-6.6804453214,G1,3.512400000000002,85.75750000000002,3.0,0.0,4.0,0.0,3.0,0.0,1.0,4.0,39.07,128.51442620583092,2.349565222946309
3-hydroxy-N-(3-nitrophenyl)-2-naphthamide,Oc1cc2ccccc2cc1C(=O)Nc3cccc(c3)[N+]([O-])=O,-6.6438656239,G1,3.7059000000000015,86.66240000000003,4.0,2.0,6.0,3.0,3.0,0.0,0.0,3.0,92.47,130.69369773004044,1.9276302759247497
lanthanum(+3) cation; oxygen(-2) anion,[O--].[O--].[O--].[La+3].[La+3],-6.6703538373,G1,-0.3564,2.0595,0.0,0.0,5.0,0.0,0.0,0.0,0.0,0.0,85.5,86.01814517375897,-0.0
"bis(2,4-dichloro-5-nitrophenyl) carbonate",[O-][N+](=O)c1cc(OC(=O)Oc2cc(c(Cl)cc2Cl)[N+]([O-])=O)c(Cl)cc1Cl,-6.8129074612,G1,5.694400000000001,92.8848,7.0,0.0,13.0,4.0,2.0,0.0,0.0,2.0,121.81,163.7610683515414,2.273897320748215
"Terphenyl, hydrogenated",C1CC=CC(C1)c2ccc(cc2)C3CCC=CC3,-6.5919290491,G3,5.334000000000004,77.90600000000005,0.0,0.0,0.0,2.0,1.0,0.0,2.0,3.0,0.0,110.41984012082928,1.736105834392174
octadec-9-en-1-yl dihydrogen phosphate,CCCCCCCC\C=C/CCCCCCCCO.O[P](O)(O)=O,-6.785897843300001,G1,5.087600000000009,100.80070000000003,2.0,4.0,6.0,15.0,0.0,0.0,0.0,0.0,97.99,147.98604077717602,0.0
4-tert-butylphenol; formaldehyde,CC(C)(C)c1ccc(O)cc1.C=O,-6.4939402067,G1,2.5048000000000004,53.92780000000004,2.0,1.0,2.0,0.0,1.0,0.0,0.0,1.0,37.3,79.21770069724901,6.709090223541395e-07
mercury,[Hg],-6.5541212514,G1,-0.0025,0.0,0.0,0.0,1.0,0.0,0.0,0.0,0.0,0.0,0.0,28.00040585247103,0.0
"1-[(E)-2-(2,4-dimethylphenyl)diazen-1-yl]naphthalen-2-ol",Cc1ccc(N\N=C2/C(=O)C=Cc3ccccc23)c(C)c1,-6.7054442976,G1,3.7155400000000025,86.55870000000003,3.0,1.0,3.0,2.0,2.0,0.0,1.0,3.0,41.46,123.55955861597408,1.956098407831308
methyl myristate,CCCCCCCCCCCCCC(=O)OC,-6.6497381608,G1,4.8605000000000045,73.09400000000007,2.0,0.0,2.0,12.0,0.0,0.0,0.0,0.0,26.3,107.12350795893272,2.961268147138321
(4-anilino-1-naphthyl){bis[4-(dimethylamino)phenyl]}methanol,CN(C)c1ccc(cc1)C(O)(c2ccc(cc2)N(C)C)c3ccc(Nc4ccccc4)c5ccccc35,-6.9891355524000005,G1,6.999600000000007,157.31149999999968,4.0,2.0,4.0,7.0,5.0,0.0,0.0,5.0,38.74,218.972824117618,1.7122361195348514
N-{2-[(2-benzamidophenyl)disulfanyl]phenyl}benzamide,O=C(Nc1ccccc1SSc2ccccc2NC(=O)c3ccccc3)c4ccccc4,-6.9782870605,G2,6.990600000000005,133.38839999999993,4.0,2.0,6.0,7.0,4.0,0.0,0.0,4.0,58.2,194.401520670866,1.4669001835366384
"N,N-DIBUTYLDODECANAMIDE",CCCCCCCCCCCC(=O)N(CCCC)CCCC,-7.016412076799999,G1,6.336100000000007,98.24000000000008,1.0,0.0,2.0,16.0,0.0,0.0,0.0,0.0,20.31,139.5945069716123,3.613822572992725
(2-methoxy-5-nitrophenyl) acetate,COc1ccc(cc1OC(C)=O)[N+]([O-])=O,-2.9466040673,G1,1.5286999999999995,50.957400000000014,5.0,0.0,6.0,3.0,1.0,0.0,0.0,1.0,78.66999999999999,85.56781774424411,3.123368127282912
Copper; methanesulfonic acid,[Cu].C[S](O)(=O)=O,0.7323301822,G1,-0.4985,17.472600000000003,2.0,1.0,5.0,0.0,0.0,0.0,0.0,0.0,54.37,46.96350731009093,0.0
4-methylbenzoyl 4-methylbenzene-1-carboperoxoate,Cc1ccc(cc1)C(=O)OOC(=O)c2ccc(C)cc2,-6.798351882,G1,3.232240000000002,73.18900000000004,4.0,0.0,4.0,2.0,2.0,0.0,0.0,2.0,52.6,116.42769575798702,1.9437578090816647
2-cyclohexyl-6-[(3-cyclohexyl-2-hydroxy-5-methylphenyl)methyl]-4-methylphenol,Cc1cc(Cc2cc(C)cc(C3CCCCC3)c2O)c(O)c(c1)C4CCCCC4,-6.9790342734,G4,7.400840000000007,120.14560000000006,2.0,2.0,2.0,4.0,2.0,2.0,2.0,4.0,40.46,175.5394342388437,1.6671198869995685
"1,2-bis(2-ethylhexyl) benzene-1,2-dicarboxylate",CCCCC(CC)COC(=O)c1ccccc1C(=O)OCC(CC)CCCC,-6.9789083532000005,G4,6.433000000000007,113.61900000000009,4.0,0.0,4.0,14.0,1.0,0.0,0.0,1.0,52.60000000000001,170.55049583773723,2.690590456464838
"1,2-bis(propan-2-yl)benzene; 1,3-bis(propan-2-yl)benzene; 1,4-bis(propan-2-yl)benzene",CC(C)c1ccccc1C(C)C,-6.6027992709,G1,3.9334000000000033,54.62000000000005,0.0,0.0,0.0,2.0,1.0,0.0,0.0,1.0,0.0,75.6210558058766,3.086388778868778
"1,3-diisopropylbenzene",CC(C)c1cccc(c1)C(C)C,-6.6027992709,G1,3.9334000000000033,54.62000000000005,0.0,0.0,0.0,2.0,1.0,0.0,0.0,1.0,0.0,75.6210558058766,2.95842190964212
hexadecanoic acid,CCCCCCCCCCCCCCCC(O)=O,-6.806908841,G1,5.552300000000005,77.94780000000007,1.0,1.0,2.0,14.0,0.0,0.0,0.0,0.0,37.3,113.1691385960185,2.9229656090325555
"4,7-Methano-1H-indenol, 3a,4,5,6,7,7a-hexahydro-, acetate",CC(=O)OC1=CCC2C3CCC(C3)C12,-3.0097265709,G1,2.4994000000000005,52.27700000000004,2.0,0.0,2.0,1.0,0.0,2.0,3.0,3.0,26.3,84.32158512297093,1.8013048134867886
"octamethyl-1,3,5,7,2,4,6,8-tetraoxatetrasilocane",C[Si]1(C)O[Si](C)(C)O[Si](C)(C)O[Si](C)(C)O1,-6.953686490700001,G5,2.873600000000001,74.26800000000004,4.0,0.0,8.0,0.0,0.0,1.0,1.0,1.0,36.92,103.25277280587856,2.977060745318193
3-octanoyloxypropyl octanoate,CCCCCCCC(=O)OCCCOC(=O)CCCCCCC,-7.516526119400001,G1,5.183900000000006,93.28700000000008,4.0,0.0,4.0,16.0,0.0,0.0,0.0,0.0,52.6,141.8583437460698,3.299477983838683
"1-(3,3-dimethylcyclohexyl)pent-4-en-1-one",CC1(C)CCCC(C1)C(=O)CCC=C,-4.7793105096,G1,3.738100000000003,60.17700000000004,1.0,0.0,1.0,4.0,0.0,1.0,1.0,1.0,17.07,87.58464431491915,2.432012945763168
9-ethyl-9H-carbazole,CCn1c2ccccc2c3ccccc13,-6.813503151,G1,3.8144000000000022,65.11800000000004,1.0,0.0,1.0,1.0,3.0,0.0,0.0,3.0,4.93,88.94374831937024,2.6169090708759697
N-ethyl-N-{2-[1-(2-methylpropoxy)ethoxy]ethyl}-4-[(E)-2-phenyldiazen-1-yl]aniline,CCN(CCOC(C)OCC(C)C)c1ccc(cc1)N=Nc2ccccc2,-7.0905037661,G1,5.963500000000006,111.15100000000004,5.0,0.0,5.0,11.0,2.0,0.0,0.0,2.0,46.42,162.57162044323326,1.8319596539513563
"1-(4-tert-butylphenyl)-3-(4-methoxyphenyl)propane-1,3-dione",COc1ccc(cc1)C(=O)CC(=O)c2ccc(cc2)C(C)(C)C,-7.060548154299999,G1,4.448400000000004,91.41400000000006,3.0,0.0,3.0,5.0,2.0,0.0,0.0,2.0,43.370000000000005,136.8446236703283,2.068724403131613
"2,2,4,6,6-pentamethyl-3,5-dioxa-2,4,6-trisilaheptane",C[Si](O[Si](C)(C)C)O[Si](C)(C)C,-7.0443456956,G1,2.807400000000001,60.48000000000004,2.0,0.0,5.0,4.0,0.0,0.0,0.0,0.0,18.46,80.3889446437905,3.830355464089918
"1,3,5-tris[[(2R)-oxiran-2-yl]methyl]-1,3,5-triazinane-2,4,6-trione",O=C1N(C[C@@H]2CO2)C(=O)N(C[C@@H]3CO3)C(=O)N1C[C@@H]4CO4,-2.4688253265,G1,-2.631899999999997,68.44200000000002,9.0,0.0,9.0,6.0,1.0,3.0,3.0,4.0,103.59,117.81244907975622,1.8082493753899795