Name,SMILES,Solubility,Group,MolLogP,MolMR,NumHAcceptors,NumHDonors,NumHeteroatoms,NumRotatableBonds,NumAromaticRings,NumSaturatedRings,NumAliphaticRings,RingCount,TPSA,LabuteASA,BalabanJ
thalidomide,O=C1CCC(N2C(=O)c3ccccc3C2=O)C(=O)N1,-2.6758,G2,0.0877999999999999,63.113700000000016,4.0,1.0,6.0,1.0,1.0,1.0,2.0,3.0,83.55000000000001,107.93011986720128,1.9609777993868625
niclosamide,Oc1ccc(Cl)cc1C(=O)Nc2ccc(cc2Cl)[N+]([O-])=O,-5.3106,G4,3.8595000000000006,79.17640000000002,4.0,2.0,8.0,3.0,2.0,0.0,0.0,2.0,92.47,128.61856565206855,2.273996755552545
5-hydroxytryptamine,NCCc1c[nH]c2ccc(O)cc12,-0.945,G1,1.3747,52.721900000000026,2.0,3.0,3.0,2.0,2.0,0.0,0.0,2.0,62.040000000000006,76.1862367502484,2.576000355142546
"2,4,5-trichlorobenzoic acid",OC(=O)c1cc(Cl)c(Cl)cc1Cl,-2.4446,G1,3.3450000000000006,48.43130000000001,1.0,1.0,5.0,1.0,1.0,0.0,0.0,1.0,37.3,83.66189976677836,3.3258841466405995
"2,4-dichlorobenzoic acid",OC(=O)c1ccc(Cl)cc1Cl,-2.6003,G1,2.6916,43.42130000000001,1.0,1.0,4.0,1.0,1.0,0.0,0.0,1.0,37.3,73.35863353989669,3.1960696621259195
5-bromouracil,BrC1=CNC(=O)NC1=O,-2.3698,G1,-0.1743000000000001,35.38339999999999,2.0,2.0,5.0,0.0,1.0,0.0,0.0,1.0,65.72,58.06129088711887,3.523897718994017
adrenaline tartrate (1:1),CNC[C@H](O)c1ccc(O)c(O)c1.O[C@H]([C@@H](O)C(O)=O)C(O)=O,0.0,G1,-1.7719999999999998,75.94330000000002,8.0,8.0,10.0,6.0,1.0,0.0,0.0,1.0,187.78,130.42437172287015,4.383076810427599e-07
epinephrine,CNC[C@H](O)c1ccc(O)c(O)c1,-3.0077,G1,0.3506000000000001,48.658100000000026,4.0,4.0,4.0,3.0,1.0,0.0,0.0,1.0,72.72,76.45879290288288,2.8351682624881787
propylthiouracil,CCCC1=CC(=O)NC(=S)N1,-2.1504,G1,1.38499,46.2424,2.0,2.0,4.0,2.0,1.0,0.0,0.0,1.0,48.65,69.48582777182845,3.088124235677758
mechlorethamine,CN(CCCl)CCCl,-1.1141,G1,1.3958,38.93700000000001,1.0,0.0,3.0,4.0,0.0,0.0,0.0,0.0,3.24,60.5653856093827,2.9196126414385533
norethindrone acetate,CC(=O)O[C@]1(CC[C@H]2[C@@H]3CCC4=CC(=O)CC[C@@H]4[C@H]3CC[C@]12C)C#C,-4.8041,G1,4.063300000000004,95.42300000000006,3.0,0.0,3.0,1.0,0.0,3.0,4.0,4.0,43.370000000000005,150.12592260531085,1.6428371150526675
spironolactone,CC(=O)S[C@@H]1CC2=CC(=O)CC[C@]2(C)[C@H]3CC[C@@]4(C)[C@@H](CC[C@@]45CCC(=O)O5)[C@H]13,-4.2773,G1,4.852300000000005,112.21000000000006,5.0,0.0,5.0,1.0,0.0,4.0,5.0,5.0,60.44,177.13538241412454,1.5572210087099811
thiotepa,S=[P](N1CC1)(N2CC2)N3CC3,0.0018,G1,0.1577000000000001,49.00400000000002,1.0,0.0,5.0,3.0,0.0,3.0,3.0,3.0,9.03,72.11451460594036,1.8804038385945927
trichlorfon,CO[P](=O)(OC)C(O)C(Cl)(Cl)Cl,-0.3315,G5,2.1609000000000003,47.92130000000002,4.0,1.0,8.0,3.0,0.0,0.0,0.0,0.0,55.760000000000005,85.22814067922201,4.657834605001849
cysteine,NC(CS)C(O)=O,0.3597,G1,-0.6719000000000002,29.4642,3.0,3.0,4.0,2.0,0.0,0.0,0.0,0.0,63.32,46.91984846927698,3.3434170589539605
"o,p'-ddd",ClC(Cl)C(c1ccc(Cl)cc1)c2ccccc2Cl,-6.5052,G1,5.929000000000003,80.24100000000003,0.0,0.0,4.0,3.0,2.0,0.0,0.0,2.0,0.0,126.43144646188092,2.467618736944898
nicotine,CN1CCC[C@H]1c2cccnc2,0.7898,G1,1.8483,48.842000000000034,2.0,0.0,2.0,1.0,1.0,1.0,1.0,2.0,16.130000000000003,73.22976418910065,2.194591657785846
"uridine, 2'-deoxy-5-iodo-",OCC1OC(CC1O)N2C=C(I)C(=O)NC2=O,-2.2481,G1,-1.2181,65.65930000000002,6.0,3.0,8.0,2.0,1.0,1.0,1.0,2.0,104.54999999999998,109.1864450414692,2.335396041923273
4-dimethylamino-3'-methylazobenzene,CN(C)c1ccc(cc1)N=Nc2cccc(C)c2,-5.7769,G1,4.476420000000004,76.12400000000004,3.0,0.0,3.0,3.0,2.0,0.0,0.0,2.0,27.96,107.78993518344328,2.136611707509363
isoflurophate,CC(C)O[P](F)(=O)OC(C)C,-1.0777,G1,2.914000000000001,41.15650000000001,3.0,0.0,5.0,4.0,0.0,0.0,0.0,0.0,35.53,66.54186865886246,3.907836095239563
metacil,CC1=CC(=O)NC(=S)N1,-2.4259,G3,0.74091,36.9844,2.0,2.0,4.0,0.0,1.0,0.0,0.0,1.0,48.65,56.75594354303523,3.515622477176413
4-aminobutyric acid,NCCCC(O)=O,1.1006,G1,-0.1900999999999997,25.924199999999995,2.0,2.0,3.0,3.0,0.0,0.0,0.0,0.0,63.32,42.12972392027186,2.8219389370591843
cantharidin,C[C@@]12[C@H]3CC[C@H](O3)[C@]1(C)C(=O)OC2=O,-3.8156,G1,0.6436,45.20800000000003,4.0,0.0,4.0,0.0,0.0,3.0,3.0,3.0,52.6,81.55637125591262,2.210427288035272
adenosine triphosphate,Nc1ncnc2n(cnc12)C3OC(CO[P](O)(=O)O[P](O)(=O)O[P](O)(O)=O)C(O)C3O,0.2948,G1,-1.6290000000000004,95.4757,14.0,7.0,21.0,8.0,2.0,1.0,1.0,3.0,279.13,171.21832907177668,1.6894094002007245
coumaphos,CCO[P](=S)(OCC)Oc1ccc2C(=C(Cl)C(=O)Oc2c1)C,-5.3835,G3,4.431120000000004,90.39600000000004,6.0,0.0,8.0,6.0,2.0,0.0,0.0,2.0,57.900000000000006,137.92794716588332,2.43202137459269
lysine,NCCCCC(N)C(O)=O,0.8351,G1,-0.4726999999999995,38.5166,3.0,3.0,4.0,5.0,0.0,0.0,0.0,0.0,89.34,60.1994988460778,3.2148768968244483
glycerophosphoric acid,OCC(O)CO[P](O)(O)=O,0.7643,G1,-1.5511,31.08869999999999,4.0,4.0,7.0,4.0,0.0,0.0,0.0,0.0,107.22,57.30922616938877,3.455281040689958
3-isothiocyanato-1-propene,C=CCN=C=S,-1.6953,G1,1.2752,30.089999999999996,2.0,0.0,2.0,2.0,0.0,0.0,0.0,0.0,12.36,42.39857707190012,3.0739155094200403
"1,1-dimethylhydrazine",CN(C)N,1.2211,G1,-0.5783,17.874400000000005,2.0,1.0,2.0,0.0,0.0,0.0,0.0,0.0,29.26,26.17405352967722,2.3237900077244498
demerol,CCOC(=O)C1(CCN(C)CC1)c2ccccc2,-1.8861,G3,2.2131,71.48400000000005,3.0,0.0,3.0,3.0,1.0,1.0,1.0,2.0,29.54,108.74495199529125,2.3130142833469614
fructose,OC[C@@H](O)[C@@H](O)[C@H](O)C(=O)CO,0.6353,G1,-3.3772,37.199000000000005,6.0,5.0,6.0,5.0,0.0,0.0,0.0,0.0,118.22,68.69665246083639,4.07958305039934
sucrose,OC[C@H]1O[C@H](O[C@]2(CO)O[C@H](CO)[C@@H](O)[C@@H]2O)[C@H](O)[C@@H](O)[C@@H]1O,0.7878,G1,-5.395599999999993,68.64140000000003,11.0,8.0,11.0,5.0,0.0,2.0,2.0,2.0,189.53,130.43645768522254,2.1772696581273263
"1,2-propanediol",CC(O)CO,1.1186,G1,-0.6405000000000001,18.7666,2.0,2.0,2.0,1.0,0.0,0.0,0.0,0.0,40.46,31.057602761014792,2.5395388613593903
ethinyl estradiol,C[C@]12CC[C@H]3[C@@H](CCc4cc(O)ccc34)[C@@H]1CC[C@@]2(O)C#C,-4.4192,G1,3.612600000000002,86.50660000000003,2.0,2.0,2.0,0.0,1.0,2.0,3.0,4.0,40.46,132.1107921567131,1.721704964542758
sulfanilyl guanadine,NC(N)=N[S](=O)(=O)c1ccc(N)cc1,-1.9885,G1,-0.7690999999999999,53.85,3.0,3.0,7.0,2.0,1.0,0.0,0.0,1.0,124.56,81.47211570320692,3.181937534409693
chlordane,ClC1CC2C(C1Cl)C3(Cl)C(=C(Cl)C2(Cl)C3(Cl)Cl)Cl,-6.8644,G2,5.682800000000001,81.21600000000001,0.0,0.0,8.0,0.0,0.0,2.0,3.0,3.0,0.0,144.74276337968047,2.2643842348284595
testosterone propionate,CCC(=O)O[C@H]1CC[C@H]2[C@@H]3CCC4=CC(=O)CC[C@]4(C)[C@H]3CC[C@]12C,-5.3669,G1,4.840100000000005,96.88100000000006,3.0,0.0,3.0,2.0,0.0,3.0,4.0,4.0,43.370000000000005,151.12669721345156,1.590853355055114
a-estradiol,C[C@]12CC[C@H]3[C@@H](CCc4cc(O)ccc34)[C@@H]1CC[C@H]2O,-4.8441,G1,3.609200000000002,78.73060000000004,2.0,2.0,2.0,0.0,1.0,2.0,3.0,4.0,40.46,120.38168253606062,1.7111998765070122
librium,CN=C1CN(O)C(=C2C=C(Cl)C=CC2=N1)c3ccccc3,-2.1757,G1,1.8492,83.03650000000002,3.0,1.0,5.0,1.0,2.0,0.0,1.0,3.0,48.19,126.85484871791324,2.418329091565916
prochloroperazine,CN1CCN(CCCN2c3ccccc3Sc4ccc(Cl)cc24)CC1,-4.3979,G1,4.580200000000004,107.57700000000006,4.0,0.0,5.0,4.0,2.0,1.0,2.0,4.0,9.72,159.10224919653248,1.4932356446643806
nikethamide,CCN(CC)C(=O)c1cccnc1,0.7490000000000001,G1,1.5636,51.48850000000004,2.0,0.0,3.0,3.0,1.0,0.0,0.0,1.0,33.2,78.39711744267363,2.7845068037781697
2-(1h)-quinolinone,O=C1Nc2ccccc2C=C1,-2.1394,G1,1.5281,44.568700000000014,1.0,1.0,2.0,0.0,2.0,0.0,0.0,2.0,32.86,63.49423773222244,2.9353507979720246
sulfaquinoxaline,Nc1ccc(cc1)[S](=O)(=O)Nc2cnc3ccccc3n2,-4.6026,G1,2.0128,81.20090000000002,5.0,2.0,7.0,3.0,3.0,0.0,0.0,3.0,97.97,121.25998659222506,1.9473573765384264
thiamine,[Cl-].Cc1ncc(C[n+]2csc(CCO)c2C)c(N)n1,0.2207,G1,-2.388259999999997,70.32420000000002,5.0,2.0,7.0,4.0,2.0,0.0,0.0,2.0,75.91,122.10970429914856,1.804998993633916e-06
"1,2-propanediol-3-(2-tolyloxy)",Cc1ccccc1OCC(O)CO,-1.1887,G1,0.7270199999999998,49.76660000000003,3.0,2.0,3.0,4.0,1.0,0.0,0.0,1.0,49.69,77.5931843109823,2.4953895881253176
3-methyl-4-chlorophenol,Cc1cc(O)ccc1Cl,-1.5704,G3,2.35402,37.853800000000014,1.0,1.0,2.0,0.0,1.0,0.0,0.0,1.0,20.23,58.89384521297126,3.171678030440916
dl-methionine,CSCCC(N)C(O)=O,-0.6593,G3,0.1513999999999998,38.61019999999999,3.0,2.0,4.0,4.0,0.0,0.0,0.0,0.0,63.32,58.61777606003371,3.2659073992264416
"1-propanol, 2,3-dimercapto-",OCC(S)CS,-0.1547,G1,0.2069,33.7128,3.0,3.0,3.0,2.0,0.0,0.0,0.0,0.0,20.23,48.57350233562222,2.7541847860376616
a-glucose-1-phosphate,OCC1OC(O[P](O)(O)=O)C(O)C(O)C1O,0.5848,G1,-3.1044,46.896300000000025,7.0,6.0,10.0,3.0,0.0,1.0,1.0,1.0,156.91,90.10023409294828,2.747846398413265
n-nitrosomorpholine,O=NN1CCOCC1,0.9351,G1,0.0,28.18699999999999,3.0,0.0,4.0,1.0,0.0,1.0,1.0,1.0,41.900000000000006,47.36649312166584,2.2166579722077144
dopa,NC(Cc1ccc(O)c(O)c1)C(O)=O,-1.5959,G5,0.0521999999999999,49.08680000000002,4.0,4.0,5.0,3.0,1.0,0.0,0.0,1.0,103.78,80.41034351633131,2.7772680269131413
6-aminohexanoic acid,NCCCCCC(O)=O,0.5854,G3,0.5901000000000001,35.158199999999994,2.0,2.0,3.0,5.0,0.0,0.0,0.0,0.0,63.32,54.85960814906508,2.828868134909685
acetamide,CC(N)=O,1.5808,G1,-0.5084000000000002,14.8684,1.0,1.0,2.0,0.0,0.0,0.0,0.0,0.0,43.09,24.60560593928264,2.8030394876740514
tetracycline,CN(C)[C@H]1[C@@H]2C[C@H]3C(=C(O)c4c(O)cccc4[C@@]3(C)O)C(=O)[C@]2(O)C(=O)\C(=C(N)/O)C1=O,-3.284,G1,-0.371,110.11140000000006,10.0,6.0,10.0,1.0,1.0,2.0,3.0,4.0,181.62,182.4292368532139,2.0282580884561154
dieldrin,ClC1=C(Cl)C2(Cl)C3C4CC(C5OC45)C3C1(Cl)C2(Cl)Cl,-6.2908,G5,4.481400000000002,77.57500000000003,1.0,0.0,7.0,0.0,0.0,4.0,5.0,5.0,12.53,139.96799807715874,1.8029074597936312
methotrimeprazine,COc1ccc2Sc3ccccc3N(C[C@H](C)CN(C)C)c2c1,-4.2155,G1,4.495600000000004,98.28300000000009,4.0,0.0,4.0,5.0,2.0,0.0,1.0,3.0,15.71,142.7935835680869,1.9870942688955264
mefenamic acid,Cc1cccc(Nc2ccccc2C(O)=O)c1C,-4.0815,G4,3.7452400000000017,72.60000000000002,2.0,2.0,3.0,3.0,2.0,0.0,0.0,2.0,49.33,106.08894170459864,2.4024843007490344
methylene blue,[Cl-].CN(C)c1ccc2nc3ccc(cc3[s+]c2c1)N(C)C,-0.8655,G1,0.8666000000000007,90.18700000000004,3.0,0.0,5.0,2.0,3.0,0.0,0.0,3.0,19.370000000000005,134.7977600448002,1.61333242840053e-06
chlormerodrin,[Cl-].COC(C[Hg+])CNC(N)=O,-1.5235,G1,-3.3611999999999984,33.19009999999999,2.0,2.0,6.0,4.0,0.0,0.0,0.0,0.0,64.35,88.60738098386003,0.0
"alanine, 2-methyl-",CC(C)(N)C(O)=O,0.2453,G3,-0.1916999999999999,25.9022,2.0,2.0,3.0,1.0,0.0,0.0,0.0,0.0,63.32,42.12972392027186,3.7911184170869663
"fluoroacetic acid, sodium salt",[Na+].[O-]C(=O)CF,1.0452,G1,-4.290199999999999,10.982,2.0,0.0,4.0,1.0,0.0,0.0,0.0,0.0,40.13,56.63888402010412,0.0
arecoline,COC(=O)C1=CCCN(C)C1,0.8091,G1,0.4213,42.213000000000015,3.0,0.0,3.0,1.0,0.0,0.0,1.0,1.0,29.54,66.63331264264632,2.573324204324121
n-methyl o-(3-isopropylphenyl)carbamate,CNC(=O)Oc1cccc(c1)C(C)C,-3.3567,G1,2.528200000000001,55.61470000000004,2.0,1.0,3.0,2.0,1.0,0.0,0.0,1.0,38.33,84.08104320463868,2.781384662198301
mebutamate,CCC(C)C(C)(COC(N)=O)COC(N)=O,-2.366,G1,1.2294000000000005,58.63280000000003,4.0,2.0,6.0,6.0,0.0,0.0,0.0,0.0,104.64,95.25364611052574,4.466411108446044
colchicine,COC1=CC=C2C(=CC1=O)[C@H](CCc3cc(OC)c(OC)c(OC)c23)NC(C)=O,-0.9482,G1,2.871600000000001,109.23470000000006,6.0,1.0,7.0,5.0,2.0,0.0,1.0,3.0,83.09,169.10472006325654,2.414127979948404
pyridoxal hydrochloride,[H+].[Cl-].Cc1ncc(CO)c(C=O)c1O,0.3901,G1,-2.48308,43.06110000000002,4.0,2.0,5.0,2.0,1.0,0.0,0.0,1.0,70.42,83.13375867011405,0.0
"3,5-diiodotyrosine",N[C@@H](Cc1cc(I)c(O)c(I)c1)C(O)=O,-2.8583,G3,1.5557999999999998,72.85600000000001,3.0,3.0,6.0,3.0,1.0,0.0,0.0,1.0,83.55000000000001,114.1397860062226,2.9237270307423464
o-phenanthroline,c1cnc2c(c1)ccc3cccnc23,-1.826,G5,2.7830000000000004,57.044000000000025,2.0,0.0,2.0,0.0,3.0,0.0,0.0,3.0,25.78,81.23402814486039,2.610318687415942
pyridoxal,Cc1ncc(CO)c(C=O)c1O,0.4758,G1,0.4004199999999998,41.94910000000002,4.0,2.0,4.0,2.0,1.0,0.0,0.0,1.0,70.42,69.49586704806909,3.347557328348924
nihydrazone,CC(=O)N/N=C/c1oc(cc1)[N+]([O-])=O,-2.5958,G1,0.6577999999999999,46.77310000000001,5.0,1.0,7.0,3.0,1.0,0.0,0.0,1.0,97.74,78.55037723901033,2.6374009499939133
acetone,CC(C)=O,1.236,G1,0.5952999999999999,16.355,1.0,0.0,1.0,0.0,0.0,0.0,0.0,0.0,17.07,25.63065735666653,2.8030394876740514
dimethyl sulfoxide,C[S](C)=O,1.1072,G1,-0.0052999999999999,19.9904,1.0,0.0,2.0,0.0,0.0,0.0,0.0,0.0,17.07,28.478447345802078,2.8030394876740514
norethindrone,C[C@]12CC[C@H]3[C@@H](CCC4=CC(=O)CC[C@H]34)[C@@H]1CC[C@@]2(O)C#C,-4.6271,G3,3.4925000000000024,85.87580000000004,2.0,1.0,2.0,0.0,0.0,3.0,4.0,4.0,37.3,132.91520479916298,1.6520192857313454
hypoxanthine,O=C1N=CNc2nc[nH]c12,-2.2888,G1,-0.3538,34.50939999999999,3.0,2.0,5.0,0.0,2.0,0.0,0.0,2.0,74.43,55.14269411512977,3.0929120500200677
maltose,OCC1OC(OC2C(O)C(O)C(O)OC2CO)C(O)C(O)C1O,0.3577,G3,-5.397199999999993,68.61940000000004,11.0,8.0,11.0,4.0,0.0,2.0,2.0,2.0,189.53,130.43645768522254,2.114861902481824
hexachlorophene,Oc1c(Cl)cc(Cl)c(Cl)c1Cc2c(O)c(Cl)cc(Cl)c2Cl,-3.4634,G1,6.609000000000001,89.07959999999999,2.0,2.0,8.0,2.0,2.0,0.0,0.0,2.0,40.46,150.26150430563968,2.641450020385574
"1-fluoro-2,4-dinitrobenzene",[O-][N+](=O)c1ccc(F)c(c1)[N+]([O-])=O,-2.6677,G1,1.6421,39.70880000000001,4.0,0.0,7.0,2.0,1.0,0.0,0.0,1.0,86.28,70.90288996742281,3.267052212361691
histidine,NC(Cc1[nH]cnc1)C(O)=O,-0.5314,G3,-0.6359000000000006,37.9029,3.0,3.0,5.0,3.0,1.0,0.0,0.0,1.0,92.0,63.250684413900096,2.4987607772382447
cytosine,NC1=CC=NC(=O)N1,-1.1426,G3,-0.6479000000000001,29.2701,3.0,2.0,4.0,0.0,1.0,0.0,0.0,1.0,71.77,45.37211187844647,3.277417459528498
sodium lactate,[Na+].CC(O)C([O-])=O,0.9505,G1,-4.878899999999998,16.687800000000003,3.0,1.0,4.0,1.0,0.0,0.0,0.0,0.0,60.36,63.63252448377049,0.0
methoxychlor,COc1ccc(cc1)C(c2ccc(OC)cc2)C(Cl)(Cl)Cl,-6.5386,G5,5.205900000000002,88.12100000000004,2.0,0.0,5.0,4.0,2.0,0.0,0.0,2.0,18.46,139.0851549228062,2.4145368579066235
alizarine,Oc1ccc2C(=O)c3ccccc3C(=O)c2c1O,-2.7785,G2,1.8732,63.07860000000002,4.0,2.0,4.0,0.0,2.0,0.0,1.0,3.0,74.6,102.12406210530452,2.3767550120547685
adenine,Nc1ncnc2nc[nH]c12,-2.1179,G3,-0.0648999999999999,36.0961,4.0,2.0,5.0,0.0,2.0,0.0,0.0,2.0,80.47999999999999,56.32106271209872,2.950090305322589
bendroflumethiazide,N[S](=O)(=O)c1cc2c(NC(Cc3ccccc3)N[S]2(=O)=O)cc1C(F)(F)F,-3.5913,G1,1.6254,90.69540000000003,5.0,3.0,12.0,3.0,2.0,0.0,1.0,3.0,118.36,153.0352655730593,2.108091332338603
quinethazone,CCC1NC(=O)c2cc(c(Cl)cc2N1)[S](N)(=O)=O,-3.2859,G3,0.8788,67.99310000000001,4.0,3.0,8.0,2.0,1.0,0.0,1.0,2.0,101.29,109.55051970712348,2.5759478838468004
methane,C,-2.8629,G4,0.6361,6.731,0.0,0.0,0.0,0.0,0.0,0.0,0.0,0.0,0.0,8.739251027829551,0.0
hydrocyanic acid,C#N,1.5682,G1,0.13978,6.67,1.0,0.0,1.0,0.0,0.0,0.0,0.0,0.0,23.79,13.131830709298267,3.0
propyne,CC#C,-1.0417,G3,0.6395,14.507,0.0,0.0,0.0,0.0,0.0,0.0,0.0,0.0,0.0,20.46836064848204,2.475534205527556
ethylamine,CCN,1.346,G1,-0.0349999999999998,14.728400000000002,1.0,1.0,1.0,0.0,0.0,0.0,0.0,0.0,26.02,20.444083839238875,1.6329931618554523
formamide oxime,ON=C,0.5768,G1,0.0761999999999999,11.3355,2.0,1.0,2.0,0.0,0.0,0.0,0.0,0.0,32.59,18.382845765363665,2.1874960973678963
ethylene oxide,C1CO1,1.356,G1,0.0166,10.819,1.0,0.0,1.0,0.0,0.0,1.0,1.0,1.0,12.53,19.21190721820381,2.25
bromoform,BrC(Br)Br,-1.9113,G3,2.4547,30.569,0.0,0.0,3.0,0.0,0.0,0.0,0.0,0.0,0.0,50.34189384475364,2.3237900077244498
2-iodopropane,CC(C)I,-2.0843,G3,1.8298,29.155999999999988,0.0,0.0,1.0,0.0,0.0,0.0,0.0,0.0,0.0,40.7309733776664,2.3237900077244498
isopropylamine,CC(C)N,1.2283,G1,0.3535,19.323400000000003,1.0,1.0,1.0,0.0,0.0,0.0,0.0,0.0,26.02,26.809025953635484,2.3237900077244498
iodoform,IC(I)I,-3.5952,G1,2.575,45.848,0.0,0.0,3.0,0.0,0.0,0.0,0.0,0.0,0.0,66.52476539096045,2.3237900077244498
2-methylaziridine,CC1CN1,1.2434,G1,-0.0218999999999999,17.464700000000004,1.0,1.0,1.0,0.0,0.0,1.0,1.0,1.0,21.94,26.01316628670158,2.171098317873574
cacodylic acid,C[As](C)(O)=O,1.1612,G1,0.1109999999999999,20.3873,1.0,1.0,3.0,0.0,0.0,0.0,0.0,0.0,37.3,33.838126569051454,3.472066495600119
acetone cyanohydrin,CC(C)(O)C#N,1.07,G1,0.2808800000000001,21.910799999999995,2.0,1.0,2.0,0.0,0.0,0.0,0.0,0.0,44.02,37.02089080468409,3.552734354515761
"1,1,1-trifluoro-2-chloroethane",FC(F)(F)CCl,-1.1098,G1,1.7875,16.775,0.0,0.0,4.0,0.0,0.0,0.0,0.0,0.0,0.0,37.90406557788653,3.1684898726705697
"acetic acid, tribromo-",[O-]C(=O)C(Br)(Br)Br,-0.1713,G1,0.5748,34.519,2.0,0.0,5.0,0.0,0.0,0.0,0.0,0.0,40.13,65.66259181139,3.7911184170869663
"3,3-dimethyl-2-butanone",CC(=O)C(C)(C)C,-0.7219,G1,1.6215,30.13599999999998,1.0,0.0,1.0,0.0,0.0,0.0,0.0,0.0,17.07,44.72548369985636,3.7911184170869663
dalapon,CC(Cl)(Cl)C(O)=O,0.5455,G1,1.2648,27.74679999999999,1.0,1.0,4.0,1.0,0.0,0.0,0.0,0.0,37.3,51.03142356262589,3.7911184170869663
"1,1,1-trichloro-2-propanol",CC(O)C(Cl)(Cl)Cl,-0.7574,G1,1.7374,31.970799999999997,1.0,1.0,4.0,0.0,0.0,0.0,0.0,0.0,20.23,57.1731676894638,3.541196965079901
"acetic acid, chlorodifluoro-",OC(=O)C(F)(F)Cl,0.8845,G1,0.9026,18.4358,1.0,1.0,5.0,1.0,0.0,0.0,0.0,0.0,37.3,42.69428602720008,3.7911184170869663
"1,1,1,2-tetrachloro-2,2-difluoroethane",FC(F)(Cl)C(Cl)(Cl)Cl,-3.3093,G1,3.1882,31.090000000000003,0.0,0.0,6.0,0.0,0.0,0.0,0.0,0.0,0.0,64.64832885560531,4.020391543176799
"1,1,2,2,-tetrachlorodifluoroethane",FC(Cl)(Cl)C(F)(Cl)Cl,-3.2301,G3,3.1882,31.090000000000003,0.0,0.0,6.0,1.0,0.0,0.0,0.0,0.0,0.0,64.64832885560531,4.020391543176799
camphor,CC1(C)C2CCC1(C)C(=O)C2,-1.9784,G5,2.401700000000001,44.23600000000002,1.0,0.0,1.0,0.0,0.0,2.0,2.0,2.0,17.07,68.17358985038433,2.4741517243797517
alloxantin,OC1(C(=O)NC(=O)NC1=O)C2(O)C(=O)NC(=O)NC2=O,-1.9942,G3,-4.819399999999998,53.2624,8.0,6.0,12.0,1.0,0.0,2.0,2.0,2.0,191.0,108.03923236063416,2.5655828576955138
triamcinolone acetonide,CC1(C)O[C@@H]2C[C@H]3[C@@H]4CCC5=CC(=O)C=C[C@]5(C)[C@@]4(F)[C@@H](O)C[C@]3(C)[C@@]2(O1)C(=O)CO,-4.3158,G1,2.4188000000000005,108.59860000000003,6.0,2.0,7.0,2.0,0.0,4.0,5.0,5.0,93.06000000000002,181.0286953933564,1.6368996691130526
2-methyl-2-nitro-1-propanol,CC(C)(CO)[N+]([O-])=O,1.4681,G1,0.0339999999999999,28.15919999999999,3.0,1.0,4.0,2.0,0.0,0.0,0.0,0.0,63.37,47.28128684571519,3.9084966379068447
"2,2,3-trichloro-1,1-butanediol",CC(Cl)C(Cl)(Cl)C(O)O,-0.8666,G1,1.0982999999999998,37.97760000000001,2.0,2.0,5.0,2.0,0.0,0.0,0.0,0.0,40.46,68.33234355605641,4.0137374978541
heptachlor,ClC1C=CC2C1C3(Cl)C(=C(Cl)C2(Cl)C3(Cl)Cl)Cl,-6.3168,G5,5.2415,76.09800000000001,0.0,0.0,7.0,0.0,0.0,1.0,3.0,3.0,0.0,133.7498941206145,2.317184279672631
codeine,COc1ccc2C[C@@H]3[C@@H]4C=C[C@H](O)[C@@H]5Oc1c2[C@]45CCN3C,-1.5219999999999998,G1,1.5011,82.46380000000003,4.0,1.0,4.0,1.0,1.0,1.0,4.0,5.0,41.93,129.87893872736822,1.8223654238415252
dionine,CCOc1ccc2C[C@@H]3[C@@H]4C=C[C@H](O)[C@@H]5Oc1c2[C@]45CCN3C,-2.079,G1,1.8912,87.08080000000004,4.0,1.0,4.0,2.0,1.0,1.0,4.0,5.0,41.93,136.24388084176485,1.7782656164724602
"benzenemethanol, 4-amino-.alpha.,.alpha.-bis(4-a",Cc1cc(ccc1N)C(O)(c2ccc(N)cc2)c3ccc(N)cc3,-3.0272,G1,3.0258200000000004,99.401,4.0,4.0,4.0,3.0,3.0,0.0,0.0,3.0,98.29,141.08938160365238,2.247180317893434
triphenylcarbinol,OC(c1ccccc1)(c2ccccc2)c3ccccc3,-2.2596,G1,3.970800000000003,81.42680000000004,1.0,1.0,1.0,3.0,3.0,0.0,0.0,3.0,20.23,118.70476739821768,2.238808463545148
"barbituric acid,5-me-5-phenyl-",CC1(C(=O)NC(=O)NC1=O)c2ccccc2,-2.4581,G3,0.3102999999999996,55.475400000000015,3.0,2.0,5.0,1.0,1.0,1.0,1.0,2.0,75.27000000000001,91.83457320529818,2.4809749690175766
phenolphthalein,Oc1ccc(cc1)C2(OC(=O)c3ccccc23)c4ccc(O)cc4,-2.9008,G4,3.560100000000002,87.95310000000002,4.0,2.0,4.0,2.0,3.0,0.0,1.0,4.0,66.76,138.1331794408317,2.030290845763751
butalbital,CC(C)CC1(CC=C)C(=O)NC(=O)NC1=O,-2.1193,G1,0.961,58.38340000000002,3.0,2.0,5.0,4.0,0.0,1.0,1.0,1.0,75.27000000000001,94.27752865342954,3.0548516358409223
chlorthalidone,N[S](=O)(=O)c1cc(ccc1Cl)C2(O)NC(=O)c3ccccc23,-3.4507,G1,0.9242000000000008,79.7322,4.0,3.0,8.0,2.0,2.0,0.0,1.0,3.0,109.49,131.1221012529823,2.229556596462052
"2-methyl-2-nitropropane-1,3-diol",CC(CO)(CO)[N+]([O-])=O,0.7724,G1,-0.9936,29.57099999999999,4.0,2.0,5.0,3.0,0.0,0.0,0.0,0.0,83.6,52.0755205979112,4.090340515801205
3-methyl-3-pentanol,CCC(C)(O)CC,-0.38,G3,1.5574,31.205799999999986,1.0,1.0,1.0,2.0,0.0,0.0,0.0,0.0,20.23,45.35819535200859,3.360435142696057