Name,SMILES,Solubility,Group,MolLogP,MolMR,NumHAcceptors,NumHDonors,NumHeteroatoms,NumRotatableBonds,NumAromaticRings,NumSaturatedRings,NumAliphaticRings,RingCount,TPSA,LabuteASA,BalabanJ
6'-methoxycinchonan-9-ol,COc1ccc2nccc([C@H](O)[C@H]3C[C@@H]4CCN3C[C@@H]4C=C)c2c1,-2.8121429703,G3,3.1732000000000014,95.02680000000004,4.0,1.0,4.0,4.0,2.0,3.0,3.0,5.0,45.59,142.3134262032049,1.6870853618182944
N-dodecanoyl-N-methylglycine,CCCCCCCCCCCC(=O)N(C)CC(O)=O,-2.7346414392,G1,3.4503000000000013,77.11680000000005,2.0,1.0,4.0,12.0,0.0,0.0,0.0,0.0,57.61000000000001,116.72555225186902,3.337749257772623
isobutyl 2-chloropropanoate,CC(C)COC(=O)[C@H](C)Cl,-2.5175442498,G3,1.8129,41.112000000000016,2.0,0.0,3.0,3.0,0.0,0.0,0.0,0.0,26.3,66.50723727064151,3.4037533061532064
(2E)-2-methyl-3-phenylprop-2-enal,C/C(C=O)=C/c1ccccc1,-2.4747186153,G1,2.2888,46.157000000000025,1.0,0.0,1.0,2.0,1.0,0.0,0.0,1.0,17.07,66.3630906449429,2.8717118913324144
4-methylene-2-(2-methylprop-1-en-1-yl)tetrahydro-2H-pyran,CC(C)=CC1CC(=C)CCO1,-2.5104223592,G1,2.687800000000001,47.54500000000002,1.0,0.0,1.0,1.0,0.0,1.0,1.0,1.0,9.23,68.75223806900816,2.463641081772364
ethyl 2-methylpentanoate,CCCC(C)C(=O)OCC,-2.4896905423,G1,1.9857,40.705000000000005,2.0,0.0,2.0,4.0,0.0,0.0,0.0,0.0,26.3,62.568913158156434,3.4852555681751167
tert-butyl methacrylate,CC(=C)C(=O)OC(C)(C)C,-2.4863755076,G5,1.9042,40.659000000000006,2.0,0.0,2.0,1.0,0.0,0.0,0.0,0.0,26.3,61.87931012597218,3.9324159117142328
1-(ethenyloxy)butane,CCCCOC=C,-2.3379408202,G5,1.9466,31.056999999999984,1.0,0.0,1.0,4.0,0.0,0.0,0.0,0.0,9.23,44.98790379713521,2.558780869327957
N-butylbenzenesulfonamide,CCCCN[S](=O)(=O)c1ccccc1,-2.6757824138,G2,1.7650000000000003,56.53850000000004,2.0,1.0,4.0,5.0,1.0,0.0,0.0,1.0,46.17,85.20180965310654,2.671669154266394
"2,2,6-trimethyl-6-vinyltetrahydro-2H-pyran",CC1(C)CCCC(C)(O1)C=C,-2.5359872782,G1,2.910200000000001,47.617000000000026,1.0,0.0,1.0,1.0,0.0,1.0,1.0,1.0,9.23,69.44184110119241,2.6614838488310784
"2,3,3-trimethyl-3H-indole-5-carboxylic acid",CC1=Nc2ccc(cc2C1(C)C)C(O)=O,-2.6625890537,G1,2.7684000000000006,59.19630000000002,2.0,1.0,3.0,1.0,1.0,0.0,1.0,2.0,49.66,88.46630299044729,2.598739650570946
2-methylcyclohexyl acetate,CC1CCCCC1OC(C)=O,-2.5502978569,G1,2.1282000000000005,43.186000000000014,2.0,0.0,2.0,1.0,0.0,1.0,1.0,1.0,26.3,67.92802411902382,2.35077903633914
1-chloro-2-nitrobenzene,[O-][N+](=O)c1ccccc1Cl,-2.5639664909,G5,2.2482000000000006,38.106400000000015,2.0,0.0,4.0,1.0,1.0,0.0,0.0,1.0,43.14,62.38764506887844,3.1529414466808685
2-ethylhexyl 2-hydroxypropanoate,CCCCC(CC)COC(=O)C(C)O,-2.6735257097,G1,2.1268000000000007,55.94580000000005,3.0,1.0,3.0,7.0,0.0,0.0,0.0,0.0,46.53,86.45797325354226,3.661036491276099
bromobenzene,Brc1ccccc1,-2.568561457,G5,2.4491000000000005,34.142,0.0,0.0,1.0,0.0,1.0,0.0,0.0,1.0,0.0,51.298950725138326,3.0214653097240864
trisodium hexafluoroalumanetriuide,[F-].[F-].[F-].[F-].[F-].[F-].[Na+].[Na+].[Na+].[Al+3],-2.6988459025,G5,-27.3448,5.754,0.0,0.0,10.0,0.0,0.0,0.0,0.0,0.0,0.0,131.85416740643248,-0.0
1-methyl-4-nitrobenzene,Cc1ccc(cc1)[N+]([O-])=O,-2.5149437885,G5,1.90322,37.83340000000002,2.0,0.0,3.0,1.0,1.0,0.0,0.0,1.0,43.14,58.44932095639337,3.003400684579818
2-methoxy-4-(prop-2-en-1-yl)phenyl acetate,COc1cc(CC=C)ccc1OC(C)=O,-2.7015911491000004,G1,2.349,58.20400000000004,3.0,0.0,3.0,4.0,1.0,0.0,0.0,1.0,35.53,89.32006533274988,2.970500894861653
2-methylbut-2-ene,CC=C(C)C,-2.2331509446,G3,1.9725,25.10499999999999,0.0,0.0,0.0,0.0,0.0,0.0,0.0,0.0,0.0,33.50941645323173,3.1431973062780685
"[(2S,4R)-2-(2,4-dichlorophenyl)-2-(1H-1,2,4-triazol-1-ylmethyl)-1,3-dioxolan-4-yl]methanol",OC[C@@H]1CO[C@](Cn2cncn2)(O1)c3ccc(Cl)cc3Cl,-2.9059550684,G1,1.8455999999999997,76.07280000000003,6.0,1.0,8.0,4.0,2.0,1.0,1.0,3.0,69.4,130.76211484689532,1.994481785332032
butyl 2-methylprop-2-enoate,CCCCOC(=O)C(C)=C,-2.5443674546,G5,1.9058,40.681,2.0,0.0,2.0,4.0,0.0,0.0,0.0,0.0,26.3,61.87931012597219,3.3124694776007457
"3,5,5-trimethylhexan-1-ol",CC(CCO)CC(C)(C)C,-2.5570799155,G1,2.4411000000000005,44.938800000000015,1.0,1.0,1.0,3.0,0.0,0.0,0.0,0.0,20.23,64.45302169519842,3.4694655949763176
5-chloro-2-nitrophenol,Oc1cc(Cl)ccc1[N+]([O-])=O,-2.6373771386,G1,1.9538,39.771200000000015,3.0,1.0,5.0,1.0,1.0,0.0,0.0,1.0,63.37,67.18187882107445,3.1960696621259204
chlorobenzene,Clc1ccccc1,-2.4493202347,G5,2.34,31.452,0.0,0.0,1.0,0.0,1.0,0.0,0.0,1.0,0.0,47.73466934637863,3.0214653097240864
"ethyl 1,3-dioxo-1,3-dihydro-2H-isoindole-2-carboxylate",CCOC(=O)N1C(=O)c2ccccc2C1=O,-2.7387726333,G1,1.4391,53.96400000000002,4.0,0.0,5.0,1.0,1.0,0.0,1.0,2.0,63.68,91.60822773779232,2.387792812010076
3-methyl-5-phenylpentan-1-ol,CC(CCO)CCc1ccccc1,-2.6600258381,G1,2.6377000000000006,55.629800000000046,1.0,1.0,1.0,5.0,1.0,0.0,0.0,1.0,20.23,80.41528955807264,2.2668818143040608
"N-decyl-N,N-dimethyldecan-1-aminium chloride",[Cl-].CCCCCCCCCC[N+](C)(C)CCCCCCCCCC,-2.9677471262,G3,4.348200000000002,107.06240000000012,0.0,0.0,2.0,18.0,0.0,0.0,0.0,0.0,0.0,160.52593383950648,0.0
1-[bis(4-fluorophenyl)methyl]piperazine,Fc1ccc(cc1)C([NH+]2CC[NH2+]CC2)c3ccc(F)cc3,-2.8786010762,G1,0.5160999999999998,76.99910000000003,0.0,2.0,4.0,3.0,2.0,1.0,1.0,3.0,21.05,122.9481434036787,1.966360146835211
"(phosphonooxy)phosphonic acid; 1,3,5-triazine-2,4,6-triamine",Nc1nc(N)nc(N)n1.O[P](O)(=O)O[P](O)(O)=O,-2.9089794399,G1,-2.1934,58.2374,9.0,7.0,15.0,2.0,1.0,0.0,0.0,1.0,241.01999999999992,99.505551894145,3.2111110594814817e-07
2-[(4-methyl-2-nitrophenyl)amino]ethan-1-ol,Cc1ccc(NCCO)c(c1)[N+]([O-])=O,-2.7474051676,G1,1.3074199999999998,53.40890000000002,4.0,2.0,5.0,4.0,1.0,0.0,0.0,1.0,75.4,81.52330112099062,2.96038258803094
(ethenyloxy)cyclohexane,C=COC1CCCCC1,-2.5825419737,G1,2.4792000000000005,38.155,1.0,0.0,1.0,2.0,0.0,1.0,1.0,1.0,9.23,56.71195687239921,2.145525723179687
"1,4-bis(vinyloxy)butane",C=COCCCCOC=C,-2.6477435098,G3,2.0868,41.53200000000002,2.0,0.0,2.0,7.0,0.0,0.0,0.0,0.0,18.46,62.141730223251045,2.7621442852888047
6-amino-4-hydroxynaphthalene-2-sulfonic acid,Nc1ccc2cc(cc(O)c2c1)[S](O)(=O)=O,-2.8833112394,G1,1.3743,59.83980000000002,4.0,3.0,6.0,1.0,2.0,0.0,0.0,2.0,100.62,91.8758281104815,2.837106255109604
"disodium 4,5-dichloro-2-[(E)-2-[3-methyl-5-oxo-1-(3-sulfonatophenyl)-4,5-dihydro-1H-pyrazol-4-yl]diazen-1-yl]benzene-1-sulfonate",[Na+].[Na+].CC1=NN(c2cccc(c2)[S]([O-])(=O)=O)C(=O)C1N=Nc3cc(Cl)c(Cl)cc3[S]([O-])(=O)=O,-3.2642643745,G1,-3.315399999999995,107.7294,10.0,0.0,17.0,5.0,2.0,0.0,1.0,3.0,171.79,242.8666304697181,2.722498057470174e-06
"1,3-xylene; cyclopentane; ethylbenzene; pentane; toluene",CCCCC.CCc1ccccc1.Cc2ccccc2.Cc3cccc(C)c3.C4CCCC4,-3.1729559438,G5,10.694459999999992,151.19899999999978,0.0,0.0,0.0,3.0,3.0,1.0,1.0,4.0,0.0,206.03721670816188,3.938109875842482e-07
"2-phenyl-1H-1,3-benzodiazole-5-sulfonic acid",O[S](=O)(=O)c1ccc2nc([nH]c2c1)c3ccccc3,-2.9611061362,G3,2.4766000000000004,71.34430000000003,3.0,2.0,6.0,2.0,3.0,0.0,0.0,3.0,83.04999999999998,109.22760626929768,2.169304070159664
benzene; ethenylbenzene; toluene,Cc1ccccc1.C=Cc2ccccc2.c3ccccc3,-2.9612739311,G5,6.011220000000006,94.15400000000004,0.0,0.0,0.0,1.0,3.0,0.0,0.0,3.0,0.0,127.9624771496891,1.5911538359570985e-07
manganese(2+) ion oxalate,[Mn++].[O-]C(=O)C([O-])=O,-2.6780811331,G1,-3.5163,10.014,4.0,0.0,5.0,0.0,0.0,0.0,0.0,0.0,80.25999999999999,49.61132511892647,0.0
trilithium(1+) ion phosphate,[Li+].[Li+].[Li+].[O-][P]([O-])([O-])=O,-2.5909258566,G5,-11.8126,7.6065,4.0,0.0,8.0,0.0,0.0,0.0,0.0,0.0,86.25,83.19931742229333,-2.6666666238888897e-08
"6-methoxy-1,2,3,4-tetrahydronaphthalene",COc1ccc2CCCCc2c1,-2.7477385243,G1,2.5740000000000007,49.63600000000003,1.0,0.0,1.0,1.0,1.0,0.0,1.0,2.0,9.23,73.36382776745768,2.35603984074999
"naphthalene-1,5-diamine",Nc1cccc2c(N)cccc12,-2.7678536958,G5,2.0042,52.7728,2.0,2.0,2.0,0.0,2.0,0.0,0.0,2.0,52.04,70.7928490452576,2.943372852061392
4-cyclohexylbutan-2-ol,CC(O)CCC1CCCCC1,-2.7673615716000004,G1,2.7277000000000013,47.48980000000002,1.0,1.0,1.0,3.0,0.0,1.0,1.0,1.0,20.23,69.81213265606581,2.046920975581053
barium tartarate,[Ba++].OC(C(O)C([O-])=O)C([O-])=O,-3.0523304042,G1,-5.172799999999999,27.7816,6.0,2.0,7.0,3.0,0.0,0.0,0.0,0.0,120.72,101.91019713821387,0.0
"1,1'-[methylenebis(oxy)]dibutane",CCCCOCOCCCC,-2.8068769998,G3,2.577300000000001,46.587000000000025,2.0,0.0,2.0,8.0,0.0,0.0,0.0,0.0,18.46,69.88587840201616,2.6909155266923976
cinchonan-9-ol,O[C@H]([C@H]1C[C@@H]2CCN1C[C@@H]2C=C)c3ccnc4ccccc34,-3.0887236136,G1,3.164600000000002,88.47480000000004,3.0,1.0,3.0,3.0,2.0,3.0,3.0,5.0,36.36,130.83493885930145,1.6692310274474265
hexadecyltrimethylazanium chloride,[Cl-].CCCCCCCCCCCCCCCC[N+](C)(C)C,-3.1249455224,G1,3.1779,93.21140000000008,0.0,0.0,2.0,15.0,0.0,0.0,0.0,0.0,0.0,141.43110749631668,0.0
"6-[(3-{[(6-carboxycyclohex-3-en-1-yl)carbonyl]oxy}-2,2-dimethylpropoxy)carbonyl]cyclohex-3-ene-1-carboxylate",CC1(C)COC(=O)C2CC=CCC2C(=O)OC1,-3.0041810563,G1,1.695,61.05300000000003,4.0,0.0,4.0,0.0,0.0,1.0,2.0,2.0,52.60000000000001,100.9674257204474,2.205513642154446
Neomenthol,CC(C)[C@H]1CC[C@@H](C)CC1O,-2.8302608531,G1,2.439500000000001,47.34980000000002,1.0,1.0,1.0,1.0,0.0,1.0,1.0,1.0,20.23,69.8121326560658,2.437159260034696
"methyl 2,6,6-trimethylcyclohex-2-ene-1-carboxylate",COC(=O)C1C(=CCCC1(C)C)C,-2.9085159963,G5,2.541900000000001,52.278000000000034,2.0,0.0,2.0,1.0,0.0,0.0,1.0,1.0,26.3,79.96830531563278,2.935804255759548
"3,3-dimethylbut-1-yne",CC(C)(C)C#C,-2.6135564252,G1,1.6657,28.287999999999982,0.0,0.0,0.0,0.0,0.0,0.0,0.0,0.0,0.0,39.56318699167187,3.552734354515761
"N,N-dimethyl-N-tetradecyltetradecan-1-aminium chloride",[Cl-].CCCCCCCCCCCCCC[N+](C)(C)CCCCCCCCCCCCCC,-3.3750249603,G1,7.469000000000007,143.99839999999992,0.0,0.0,2.0,26.0,0.0,0.0,0.0,0.0,0.0,211.44547075467935,0.0
2-phenoxyethyl 2-methylpropanoate,CC(C)C(=O)OCCOc1ccccc1,-3.0263435366,G1,2.2646000000000006,57.73400000000004,3.0,0.0,3.0,5.0,1.0,0.0,0.0,1.0,35.53,90.00966836493414,2.150620830677373
7-amino-3-methyl-8-oxo-5-thia-1-azabicyclo[4.2.0]oct-2-ene-2-carboxylic acid,CC1=C(N2C(SC1)C(N)C2=O)C(O)=O,-3.0453554133,G1,-0.4126000000000001,51.403200000000005,4.0,2.0,6.0,1.0,0.0,1.0,2.0,2.0,83.63,84.93269283422798,2.366773633426572
2-hydroxy-4-methylbenzamide,Cc1ccc(C(N)=O)c(O)c1,-2.9170001587,G1,0.79952,41.36170000000001,2.0,2.0,3.0,1.0,1.0,0.0,0.0,1.0,63.32000000000001,64.45693389754267,3.1960696621259195
"6-chloro-2,3-dihydro-1H-indol-2-one",Clc1ccc2CC(=O)Nc2c1,-2.9689885527,G1,1.8346,43.78570000000001,1.0,1.0,3.0,0.0,1.0,0.0,1.0,2.0,29.1,69.17010670529443,2.506684146048105
2-benzyl-2-methylbut-3-enenitrile,CC(Cc1ccccc1)(C=C)C#N,-3.0006167172,G3,2.944980000000001,54.06300000000003,1.0,0.0,1.0,3.0,1.0,0.0,0.0,1.0,23.79,79.32403245516107,2.8080878040266035
"1,4-dibutyl (2Z)-but-2-enedioate",CCCCOC(=O)\C=C/C(=O)OCCCC,-3.1280341619,G3,2.2292,60.87400000000004,4.0,0.0,4.0,8.0,0.0,0.0,0.0,0.0,52.60000000000001,96.61414591310928,3.6282159297250254
2-amino-3-[(2-amino-2-carboxyethyl)disulfanyl]propanoic acid,N[C@@H](CSSC[C@H](N)C(O)=O)C(O)=O,-3.1599219868,G5,-0.8083999999999993,56.1384,6.0,4.0,8.0,7.0,0.0,0.0,0.0,0.0,126.64,88.80143683539772,3.46817939585112
methyl 2-ethylhexanoate,CCCCC(CC)C(=O)OC,-2.9898040042000003,G5,2.375800000000001,45.32200000000002,2.0,0.0,2.0,5.0,0.0,0.0,0.0,0.0,26.3,68.93385527255305,3.6518743910902702
cyclohexene,C1CCC=CC1,-2.7104664382,G3,2.1166,27.607999999999983,0.0,0.0,0.0,0.0,0.0,0.0,1.0,1.0,0.0,38.86852741409911,2.2551447208210704
"3-(2-hydroxyethyl)-1,2,3,4-tetrahydroquinazoline-2,4-dione",OCCN1C(=O)Nc2ccccc2C1=O,-3.1128936428,G1,-0.3179000000000005,55.91450000000001,4.0,2.0,5.0,2.0,2.0,0.0,0.0,2.0,75.09,84.60949728079727,2.845819720080696
5-heptyloxolan-2-one,CCCCCCC[C@H]1CCC(=O)O1,-3.0668187599000003,G1,3.052500000000002,52.490000000000045,2.0,0.0,2.0,6.0,0.0,1.0,1.0,1.0,26.3,80.65790834781706,1.909500479109716
calcium dihydrate hydrogen phosphate,[Ca++].O[P]([O-])([O-])=O,-2.9490262679000003,G1,-2.5734,15.5793,3.0,1.0,6.0,0.0,0.0,0.0,0.0,0.0,83.41999999999999,64.42238883972024,0.0
pent-1-ene,CCCC=C,-2.6756730859,G1,1.9725,25.10499999999999,0.0,0.0,0.0,2.0,0.0,0.0,0.0,0.0,0.0,33.50941645323173,2.4017152226171965
2-{[(2-ethylhexyl)oxy]methyl}oxirane,CCCCC(CC)COCC1CO1,-3.1148651615,G1,2.6182000000000007,53.865000000000045,2.0,0.0,2.0,8.0,0.0,1.0,1.0,1.0,21.76,81.60993147728016,1.9321089904901791
boron(3+) ion phosphate,O=[P]12OB(O1)O2,-2.8690757364,G1,0.1563999999999998,16.6155,4.0,0.0,6.0,0.0,0.0,3.0,3.0,3.0,44.760000000000005,34.180400080245136,2.386531362434843
"1-(2,4-dichlorophenyl)-2-(1H-imidazol-1-yl)ethan-1-ol",OC(Cn1ccnc1)c2ccc(Cl)cc2Cl,-3.2640078237,G4,2.923500000000001,63.64880000000003,3.0,1.0,5.0,3.0,2.0,0.0,0.0,2.0,38.05,103.2579276488697,2.1730616619523
bis[(2-ethylhexyl)oxy]phosphinic acid,CCCCC(CC)CO[P](O)(=O)OCC(CC)CCCC,-3.3623020198,G5,5.552800000000006,88.34130000000006,3.0,1.0,5.0,14.0,0.0,0.0,0.0,0.0,55.760000000000005,130.78431762946352,4.075382024599752
12-aminododecanoic acid,[NH3+]CCCCCCCCCCCC([O-])=O,-3.1963980912,G1,0.8791999999999991,58.93210000000004,2.0,1.0,3.0,11.0,0.0,0.0,0.0,0.0,67.77000000000001,93.04926083544476,2.894680969467644
2-isobutyl-4-methyltetrahydro-2H-pyran,CC(C)CC1CC(C)CCO1,-3.0799294807,G1,2.8476000000000017,47.593000000000025,1.0,0.0,1.0,2.0,0.0,1.0,1.0,1.0,9.23,70.13144413337666,2.2256268733856754
"4,4'-disulfanediyldimorpholine",C1CN(CCO1)SSN2CCOCC2,-3.2596343038,G5,0.8621999999999999,59.96600000000004,6.0,0.0,6.0,3.0,0.0,2.0,2.0,2.0,24.94,92.94587847930498,1.5986594573645954
"5-bromo-1,2,3-trifluorobenzene",Fc1cc(Br)cc(F)c1F,-3.2102979357,G1,2.8664000000000005,34.016000000000005,0.0,0.0,4.0,0.0,1.0,0.0,0.0,1.0,0.0,63.79555693391703,3.3105328747224068
4-[(morpholin-4-ylcarbonothioyl)sulfanyl]morpholine,S=C(SN1CCOCC1)N2CCOCC2,-3.2913006621,G1,0.5838999999999999,64.97300000000003,5.0,0.0,6.0,1.0,0.0,2.0,2.0,2.0,24.94,100.01115121856306,1.7428120998332126
N-(1-benzylpiperidin-4-yl)-N-phenylpropanamide,CCC(=O)N(C1CCN(CC1)Cc2ccccc2)c3ccccc3,-3.4150433898,G1,4.094200000000003,98.96000000000004,2.0,0.0,3.0,5.0,2.0,1.0,1.0,3.0,23.550000000000004,144.44833464205175,1.6393646763941052
"2-tert-butyl-4,6-dimethylphenol",Cc1cc(C)c(O)c(c1)C(C)(C)C,-3.1719091991000004,G1,3.306540000000002,56.28080000000004,1.0,1.0,1.0,0.0,1.0,0.0,0.0,1.0,20.23,80.41528955807262,3.371806865788218
"4-methyl-2,3-dihydro-1H-1,3-benzodiazole-2-thione; 5-methyl-2,3-dihydro-1H-1,3-benzodiazole-2-thione",Cc1cccc2NC(=S)Nc12,-3.13627918,G1,2.53391,48.2204,1.0,2.0,3.0,0.0,2.0,0.0,0.0,2.0,31.58,69.26559841479447,3.0120243300765863
undecanal,CCCCCCCCCCC=O,-3.1520232011,G1,3.716100000000002,53.29100000000004,1.0,0.0,1.0,9.0,0.0,0.0,0.0,0.0,17.07,76.55019427183942,2.76676462623148
"1,2-dichloro-4-(trifluoromethyl)benzene",FC(F)(F)c1ccc(Cl)c(Cl)c1,-3.2679824907,G1,4.012200000000001,41.46400000000001,0.0,0.0,5.0,0.0,1.0,0.0,0.0,1.0,0.0,76.89948389643563,3.138261335720987
1-(4-{2-[4-(2-hydroxypropoxy)phenyl]propan-2-yl}phenoxy)propan-2-ol,CC(O)COc1ccc(cc1)C(C)(C)c2ccc(OCC(C)O)cc2,-3.499700952,G1,3.5317000000000025,99.36360000000003,4.0,2.0,4.0,8.0,2.0,0.0,0.0,2.0,58.92,149.58853431853623,2.0879188079851523
2-bromobutane,CCC(C)Br,-3.1114780979,G1,2.1798,28.67999999999999,0.0,0.0,1.0,1.0,0.0,0.0,0.0,0.0,0.0,41.70162497666073,2.5395388613593908
2-methylpropyl 2-phenylacetate,CC(C)COC(=O)Cc1ccccc1,-3.2710471955,G1,2.4283,55.94300000000004,2.0,0.0,2.0,4.0,1.0,0.0,0.0,1.0,26.3,84.89612313542727,2.345166078016039
"17-hydroxy-17-(3-hydroxyprop-1-yn-1-yl)-10,13-dimethyl-1,2,6,7,8,9,10,11,12,13,14,15,16,17-tetradecahydro-3H-cyclopenta[a]phenanthren-3-one (non-preferred name)",C[C@]12CCC(=O)C=C1CC[C@@H]3[C@@H]2CC[C@@]4(C)[C@H]3CCC4(O)C#CCO,-3.526033775,G1,3.245100000000002,96.52160000000003,3.0,2.0,3.0,0.0,0.0,3.0,4.0,4.0,57.53,150.43932278015222,1.6689562339450883
1-chloro-4-methylbenzene,Cc1ccc(Cl)cc1,-3.1023856768,G5,2.6484200000000007,36.18900000000001,0.0,0.0,1.0,0.0,1.0,0.0,0.0,1.0,0.0,54.09961146077524,3.0324555320336755
5-vinylbicyclo[2.2.1]hept-2-ene,C=CC1CC2CC1C=C2,-3.0798864018,G1,2.3846000000000007,39.041,0.0,0.0,0.0,1.0,0.0,1.0,2.0,2.0,0.0,56.26791957157544,2.1861434650976657
"2,5,8,11-tetramethyldodec-6-yne-5,8-diol",CC(C)CCC(C)(O)C#CC(C)(O)CCC(C)C,-3.4375252922,G1,3.364200000000002,77.16760000000005,2.0,2.0,2.0,6.0,0.0,0.0,0.0,0.0,40.46,112.80107564002996,4.419430590928232
nickel(2+) ion sulfanediide,S.[Ni],-3.022952972,G1,0.1103,10.381,0.0,0.0,2.0,0.0,0.0,0.0,0.0,0.0,0.0,30.608084834583234,0.0
iron(3+) phosphate,[Fe+3].[O-][P]([O-])([O-])=O,-3.2614644911000004,G1,-2.8271,7.6065,4.0,0.0,6.0,0.0,0.0,0.0,0.0,0.0,86.25,44.90224111671682,0.0
3-(3-aminobenzenesulfonyl)aniline,Nc1cccc(c1)[S](=O)(=O)c2cccc(N)c2,-3.5118956043000003,G1,1.6838,67.16060000000002,4.0,2.0,5.0,2.0,2.0,0.0,0.0,2.0,86.18,99.79367710137302,2.578165751302208
"ethyl 2,6,6-trimethylcyclohexa-1,3-diene-1-carboxylate",CCOC(=O)C1=C(C)C=CCC1(C)C,-3.411619706,G5,2.852100000000001,56.87100000000004,2.0,0.0,2.0,2.0,0.0,0.0,1.0,1.0,26.3,85.64364439784514,3.012080570463277
"Amines, C16-18 and C18-unsatd. alkyl",CCCCCCCCCCCCCCCCN,-3.5835100427,G4,5.4264000000000046,79.36640000000007,1.0,1.0,1.0,14.0,0.0,0.0,0.0,0.0,26.02,109.5532734407914,2.846262262649495
octadecan-1-amine,CCCCCCCCCCCCCCCCCCN,-3.6312456144,G4,6.206600000000005,88.60040000000008,1.0,1.0,1.0,16.0,0.0,0.0,0.0,0.0,26.02,122.28315766958464,2.8766966445353965
3-Nitrophthalonitrile,[O-][N+](=O)c1cccc(C#N)c1C#N,-2.9373448418,G1,1.33816,42.52640000000001,4.0,0.0,5.0,1.0,1.0,0.0,0.0,1.0,90.72,73.59942243372741,3.4929393077038924
"3-(2-chloroethyl)quinazoline-2,4(1H,3H)-dione",ClCCN1C(=O)Nc2ccccc2C1=O,-3.5747994393,G1,0.9286,59.54870000000001,3.0,1.0,5.0,2.0,2.0,0.0,0.0,2.0,54.86,90.11852975548294,2.845819720080696
"1-(5,5-dimethylcyclohex-1-en-1-yl)pent-4-en-1-one",CC1(C)CCC=C(C1)C(=O)CCC=C,-3.5342474855000003,G1,3.6582000000000026,60.15300000000004,1.0,0.0,1.0,4.0,0.0,0.0,1.0,1.0,17.07,86.89504128273488,2.5548931602878104
2-(2-{[(2R)-2-ethylhexyl]oxy}ethoxy)ethyl prop-2-enoate 2-(2-{[(2S)-2-ethylhexyl]oxy}ethoxy)ethyl prop-2-enoate,CCCC[C@H](CC)COCCOCCOC(=O)C=C.CCCC[C@@H](CC)COCCOCCOC(=O)C=C,-3.9942741056,G1,5.930400000000007,152.1999999999998,8.0,0.0,8.0,26.0,0.0,0.0,0.0,0.0,89.52000000000001,231.9535130116208,0.0
"4-(1-ethoxyvinyl)-3,3,5,5-tetramethylcyclohexanone",CCOC(=C)C1C(C)(C)CC(=O)CC1(C)C,-3.6433442829,G1,3.568100000000003,66.05900000000004,2.0,0.0,2.0,3.0,0.0,1.0,1.0,1.0,26.3,99.06313165882264,3.010846453991157
(5-amino-3-hydroxy-5-oxopentylidene)-dimethylazanium chloride,[Cl-].C[N+](C)=CCC(O)CC(N)=O,0.5931295033,G3,-4.040299999999997,42.607600000000005,2.0,2.0,5.0,4.0,0.0,0.0,0.0,0.0,66.33000000000001,78.48293748846656,0.0
"1,3-dichloro-5-nitrobenzene",[O-][N+](=O)c1cc(Cl)cc(Cl)c1,-3.5843334863,G1,2.9016,43.11640000000001,2.0,0.0,5.0,1.0,1.0,0.0,0.0,1.0,43.14,72.6909112957601,3.1860125339283023
cyclohexanethiol,SC1CCCCC1,-3.3672139557,G1,2.2489,35.858999999999995,1.0,1.0,1.0,0.0,0.0,1.0,1.0,1.0,0.0,50.7131971096851,2.1229179499593664
tin(4+) ion disulfanediide,[S--].[S--].[Sn+4],-3.5808418514,G1,-0.3856,20.484,0.0,0.0,3.0,0.0,0.0,0.0,0.0,0.0,0.0,50.832669522106606,-0.0
"N-(2,6-dimethylphenyl)-2-piperazine-1,4-diium-1-ylacetamide",Cc1cccc(C)c1NC(=O)C[NH+]2CC[NH2+]CC2,0.4432827885,G1,-1.2961599999999969,71.76880000000003,1.0,3.0,4.0,3.0,1.0,1.0,1.0,2.0,50.15,108.36618901860383,1.939573281687735
trisodium hydrogen carbonate carbonate,[Na+].[Na+].[Na+].OC([O-])=O.[O-]C([O-])=O,0.0508613621999999,G1,-12.547300000000002,13.4208,5.0,1.0,9.0,0.0,0.0,0.0,0.0,0.0,123.55,128.85020237276285,-1.7142857061224492e-08
5-Chlorothiophene-2-sulfonamide,N[S](=O)(=O)c1sc(Cl)cc1,-3.2959363681,G1,1.0489000000000004,40.702200000000005,3.0,1.0,6.0,1.0,1.0,0.0,0.0,1.0,60.16,67.47569920621794,3.206829974335955
N-(4-fluorophenyl)-2-hydroxy-N-propan-2-ylacetamide,CC(C)N(C(=O)CO)c1ccc(F)cc1,-1.1786398993,G1,1.5594,56.10780000000003,2.0,1.0,4.0,3.0,1.0,0.0,0.0,1.0,40.540000000000006,88.1372386168494,2.9904886201096663
dicopper hydroxide phosphate,[OH-].[Cu++].[Cu++].[O-][P]([O-])([O-])=O,-3.7450548094,G1,-3.0064,9.5423,5.0,0.0,8.0,0.0,0.0,0.0,0.0,0.0,116.25,66.97861481735195,-2.6666666238888897e-08