Name,SMILES,Solubility,Group,MolLogP,MolMR,NumHAcceptors,NumHDonors,NumHeteroatoms,NumRotatableBonds,NumAromaticRings,NumSaturatedRings,NumAliphaticRings,RingCount,TPSA,LabuteASA,BalabanJ
1-cyclohexyl-3-[4-({4-[(cyclohexylcarbamoyl)amino]phenyl}methyl)phenyl]urea,O=C(NC1CCCCC1)Nc2ccc(Cc3ccc(NC(=O)NC4CCCCC4)cc3)cc2,-5.142667396,G1,6.185800000000006,133.74479999999997,2.0,4.0,6.0,6.0,2.0,2.0,2.0,4.0,82.26,196.47345966897137,1.219061185681127
"2,4-dioxo-1,3-diazetidine-1,3-bis(methyl-m-phenylene) diisocyanate",Cc1ccc(cc1N=C=O)N2C(=O)N(c3ccc(C)c(c3)N=C=O)C2=O,-5.0368259397,G1,3.8046400000000022,93.67100000000003,6.0,0.0,8.0,4.0,2.0,1.0,1.0,3.0,99.48,147.62871957071346,1.9353895215535992
"(2R)-2-[(2R,3R,4S)-3,4-dihydroxyoxolan-2-yl]-2-hydroxyethyl dodecanoate",CCCCCCCCCCCC(=O)OCC(O)[C@H]1OC[C@@H](O)[C@@H]1O,-5.0625368604,G1,1.931999999999999,90.56340000000006,6.0,3.0,6.0,13.0,0.0,1.0,1.0,1.0,96.22,144.70874963468822,1.9637742268036789
methyl 2-({4-[2-(2-cyano-4-nitrophenyl)diazen-1-yl]-3-acetamidophenyl}(2-methoxy-2-oxoethyl)amino)acetate,COC(=O)CN(CC(=O)OC)c1ccc(N=Nc2ccc(cc2C#N)[N+]([O-])=O)c(NC(C)=O)c1,-5.1935197379,G1,2.992680000000001,118.97810000000004,11.0,1.0,13.0,9.0,2.0,0.0,0.0,2.0,176.58999999999995,193.28666221654456,2.464719621668245
iodocopper,[Cu+].[I-],-5.9787509813,G1,-2.9985,0.0,0.0,0.0,2.0,0.0,0.0,0.0,0.0,0.0,0.0,41.107890448758326,0.0
"4-[(E)-2-{3-[(E)-2-(2,4-diaminophenyl)diazen-1-yl]phenyl}diazen-1-yl]benzene-1,3-diamine",Nc1ccc(N=Nc2cccc(c2)N=Nc3ccc(N)cc3N)c(N)c1,-4.197152695,G1,4.846200000000002,105.32760000000002,8.0,4.0,8.0,4.0,3.0,0.0,0.0,3.0,153.51999999999998,149.79871000865407,1.7932049601498792
"2,3-dimethylpentane; 2-methylpentane; 3-methylhexane; 3-methylpentane",CCCC(C)C.CCCC(C)CC.CCC(C)CC.CCC(C)C(C)C,-3.2704062978,G5,10.406099999999997,128.14800000000014,0.0,0.0,0.0,9.0,0.0,0.0,0.0,0.0,0.0,170.88029734833245,-1.2447368348946264e-07
pent-2-ene,CC\C=C\C,-2.5449048057,G5,1.9725,25.10499999999999,0.0,0.0,0.0,1.0,0.0,0.0,0.0,0.0,0.0,33.50941645323172,2.622415807990217
hydrogen sulfide,S,-5.5325378146,G4,0.1128,10.381,0.0,0.0,1.0,0.0,0.0,0.0,0.0,0.0,0.0,14.56133221487115,0.0
2-[(2-cyanoethyl)[4-[(6-nitrobenzothiazol-2-yl)azo]phenyl]amino]ethyl acetate,CC(=O)OCCN(CCC#N)c1ccc(cc1)N=Nc2sc3cc(ccc3n2)[N+]([O-])=O,-4.3409088983,G2,4.9030800000000045,115.96840000000005,10.0,0.0,11.0,9.0,3.0,0.0,0.0,3.0,134.08,181.11200215764208,1.6990778550605283
2-[(E)-2-{4-[(E)-2-(2-cyanophenyl)ethenyl]phenyl}ethenyl]benzonitrile,N#Cc1ccccc1/C=C/c2ccc(cc2)/C=C/c3ccccc3C#N,-4.2206388586,G1,5.7707600000000046,106.61200000000002,2.0,0.0,2.0,4.0,3.0,0.0,0.0,3.0,47.58,153.1411975165736,1.7484090824752785
"3,3'-[[4-[(2-chloro-4-nitrophenyl)azo]phenyl]imino]bis[propiononitrile]",[O-][N+](=O)c1ccc(N=Nc2ccc(cc2)N(CCC#N)CCC#N)c(Cl)c1,-4.281954413,G1,5.297360000000004,101.39740000000003,7.0,0.0,9.0,8.0,2.0,0.0,0.0,2.0,118.67999999999998,160.626162838952,2.121308221379669
3-[[2-(acetyloxy)ethyl][4-[(4-nitrophenyl)azo]phenyl]amino]propiononitrile,CC(=O)OCCN(CCC#N)c1ccc(cc1)N=Nc2ccc(cc2)[N+]([O-])=O,-4.2803415835,G1,4.293380000000004,102.79040000000003,8.0,0.0,9.0,9.0,2.0,0.0,0.0,2.0,121.19,161.57032637454887,2.031454146531152
"3-[[4-[(2,6-dibromo-4-nitrophenyl)azo]phenyl]ethylamino]propiononitrile",CCN(CCC#N)c1ccc(cc1)N=Nc2c(Br)cc(cc2Br)[N+]([O-])=O,-4.3812486892,G1,6.275180000000004,107.23140000000004,6.0,0.0,9.0,7.0,2.0,0.0,0.0,2.0,94.89,167.30047002748773,2.1875177919216218
3-[[4-[(2-chloro-4-nitrophenyl)azo]phenyl]ethylamino]propiononitrile,CCN(CCC#N)c1ccc(cc1)N=Nc2ccc(cc2Cl)[N+]([O-])=O,-4.2526115544,G1,5.403580000000004,96.84140000000004,6.0,0.0,8.0,7.0,2.0,0.0,0.0,2.0,94.89,149.86864104308668,2.1156703336401
"N-{5-[bis(prop-2-en-1-yl)amino]-2-[(E)-2-(2-chloro-4,6-dinitrophenyl)diazen-1-yl]-4-methoxyphenyl}acetamide",COc1cc(N=Nc2c(Cl)cc(cc2[N+]([O-])=O)[N+]([O-])=O)c(NC(C)=O)cc1N(CC=C)CC=C,-4.3881793818,G1,5.7172000000000045,128.84150000000005,9.0,1.0,13.0,11.0,2.0,0.0,0.0,2.0,152.57000000000002,199.0345289904944,2.6798155909313164
(1-ethoxy-1-oxopropan-2-yl) 5-[2-chloro-4-(trifluoromethyl)phenoxy]-2-nitrobenzoate,CCOC(=O)C(C)OC(=O)c1cc(Oc2ccc(cc2Cl)C(F)(F)F)ccc1[N+]([O-])=O,-6.6230386723,G3,5.167700000000004,101.13490000000006,7.0,0.0,12.0,7.0,2.0,0.0,0.0,2.0,104.97,178.15962017310562,2.3223255073974527
1-methyl-3-oxoandrostan-17-yl acetate,C[C@H]1CC(=O)C[C@@H]2CC[C@H]3[C@@H]4CC[C@H](OC(C)=O)[C@@]4(C)CC[C@@H]3[C@@]12C,-5.0925589945,G1,4.7759000000000045,96.83500000000006,3.0,0.0,3.0,1.0,0.0,4.0,4.0,4.0,43.370000000000005,151.8163002456358,1.6140267562967758
"2,3-Dihydroxypropyl docosanoate",CCCCCCCCCCCCCCCCCCCCCC(=O)OCC(O)CO,-6.9187336597,G1,6.704700000000009,122.0656000000001,4.0,2.0,4.0,23.0,0.0,0.0,0.0,0.0,66.76,180.36139660729089,3.106088722930581
2-methylpropane,C[C](C)C,-4.3765465432,G1,1.62059,20.265,0.0,0.0,0.0,0.0,0.0,0.0,0.0,0.0,0.0,27.83407737101937,2.3237900077244498
dihydroxy-dioxomolybdenum,O[Mo](O)(=O)=O,-2.3797609623,G1,-1.3541,5.810599999999999,2.0,2.0,5.0,0.0,0.0,0.0,0.0,0.0,74.6,31.770967060858744,4.062942298971397
"Butene, homopolymer (products derived from either/or But-1-ene/But-2-ene)",CCC=C.C\C=C\C,-4.6698435423,G3,3.1648000000000023,40.976000000000006,0.0,0.0,0.0,1.0,0.0,0.0,0.0,0.0,0.0,52.92047091776652,0.0
2-[(heptanoyloxy)methyl]-3-hydroxy-2-[(pentanoyloxy)methyl]propyl nonanoate,CCCCCCCCC(O)=O.CCCCCCC(O)=O.CCCCC(O)=O.OCC(CO)(CO)CO,-5.4183738573,G3,4.066200000000005,139.96060000000006,7.0,7.0,10.0,19.0,0.0,0.0,0.0,0.0,192.82,216.92449991383583,-1.9191826129872581e-07
"2-tert-butylbenzene-1,4-diol",CC(C)(C)c1cc(O)ccc1O,-1.220683278,G1,2.395300000000001,48.47160000000004,2.0,2.0,2.0,0.0,1.0,0.0,0.0,1.0,40.46,72.47963908147543,3.2314250130900137
4-methoxy-2-nitroaniline,COc1ccc(N)c(c1)[N+]([O-])=O,-1.2257020372,G2,1.1855999999999998,44.06080000000001,4.0,1.0,5.0,2.0,1.0,0.0,0.0,1.0,78.38999999999999,68.90275688291297,3.167265777748714
"1,1-diethoxy-3,7-dimethylocta-2,6-diene",CCOC(OCC)\C=C(C)\CCC=C(C)C,-2.3547996853,G1,4.078200000000003,69.46200000000005,2.0,0.0,2.0,8.0,0.0,0.0,0.0,0.0,18.46,100.3313829096307,4.082675095009227
"1H-1,3-benzodiazole-2-thiol",S=C1Nc2ccccc2N1,-2.176687281,G5,2.22549,43.4834,1.0,2.0,3.0,0.0,2.0,0.0,0.0,2.0,31.58,62.900656300397856,3.007619546803024
1-(hexyloxy)hexane,CCCCCCOCCCCCC,-4.2703037605,G1,4.163600000000003,59.10300000000006,1.0,0.0,1.0,10.0,0.0,0.0,0.0,0.0,9.23,83.86715951569911,2.758149818433293
3-[[2-(2-cyanoethoxy)ethyl][4-[(4-nitrophenyl)azo]phenyl]amino]propiononitrile,[O-][N+](=O)c1ccc(cc1)N=Nc2ccc(cc2)N(CCOCCC#N)CCC#N,-4.5937500267,G1,4.660560000000005,107.20640000000006,8.0,0.0,9.0,11.0,2.0,0.0,0.0,2.0,127.91,168.1663260703705,1.981954006221757
"N-{2-[(E)-2-(2-chloro-4,6-dinitrophenyl)diazen-1-yl]-5-(diethylamino)-4-methoxyphenyl}acetamide",CCN(CC)c1cc(NC(C)=O)c(cc1OC)N=Nc2c(Cl)cc(cc2[N+]([O-])=O)[N+]([O-])=O,-4.6673277833,G1,5.385000000000005,119.79550000000008,9.0,1.0,13.0,9.0,2.0,0.0,0.0,2.0,152.57,187.6838508260697,2.6639877401405005
decahydronaphthalene,C1CCC2CCCCC2C1,-4.1406777053,G4,3.3668000000000022,43.91600000000002,0.0,0.0,0.0,0.0,0.0,2.0,2.0,2.0,0.0,64.01206775034058,1.9253677344386608
dibutyltin maleate,CCCC[Sn++]CCCC.[O-]C(=O)\C=C\C([O-])=O,-4.5403282232,G1,0.1697999999999999,64.33800000000004,4.0,0.0,5.0,8.0,0.0,0.0,0.0,0.0,80.25999999999999,113.32635618649192,0.0
hydroxyzincio 2-methylprop-2-enoate,CC(=C)C(=O)O[Zn]O,-4.2239603591,G1,0.0105,23.12479999999999,3.0,1.0,4.0,2.0,0.0,0.0,0.0,0.0,46.53,55.74721029268905,3.4904530666021536
Di-p-xylylene,C1Cc2ccc(CCc3ccc1cc3)cc2,-5.169478497,G1,3.570400000000002,67.70000000000003,0.0,0.0,0.0,0.0,2.0,0.0,4.0,6.0,0.0,96.9424346296182,1.9682962528966688
Violanthrone,O=C1c2ccccc2c3ccc4c5ccc6c7ccccc7C(=O)c8ccc(c9ccc1c3c49)c5c68,-5.5133127462,G1,7.946000000000002,152.58799999999982,2.0,0.0,2.0,0.0,9.0,0.0,0.0,9.0,34.14,203.16581333373725,1.6310913427614953
Vat green 1,COc1cc2c3ccccc3C(=O)c4ccc5c6ccc7C(=O)c8ccccc8c9cc(OC)c(c1c5c24)c6c79,-5.5991706951,G1,7.963200000000003,165.69199999999978,4.0,0.0,4.0,2.0,9.0,0.0,0.0,9.0,52.60000000000001,226.12278802154415,1.687231167684254
"Alcohols, C12-15-branched and linear",CCCCC[C@H](CCC)CCCO,-5.1563604082,G3,3.7555000000000023,58.85980000000006,1.0,1.0,1.0,9.0,0.0,0.0,0.0,0.0,20.23,83.54784803838827,3.411278509533132
"1,1-bis(tert-butylperoxy)cyclohexane",CC(C)(C)OOC1(CCCCC1)OOC(C)(C)C,-5.386213837300001,G3,4.140200000000004,69.66200000000006,4.0,0.0,4.0,4.0,0.0,1.0,1.0,1.0,36.92,110.79043891096036,2.5743031500553983
"(2E,4E,6E,8E)-3,7-dimethyl-9-(2,6,6-trimethylcyclohex-1-en-1-yl)nona-2,4,6,8-tetraen-1-yl hexadecanoate",CCCCCCCCCCCCCCCC(=O)OC/C=C(C)/C=C/C=C(C)/C=C/C1=C(C)CCCC1(C)C,-5.7200550602,G1,11.542499999999986,167.39699999999962,2.0,0.0,2.0,20.0,0.0,0.0,1.0,1.0,26.3,236.33344604681105,2.133276457973302
(2R)-2-[4-[5-(trifluoromethyl)pyridin-2-yl]oxyphenoxy]propanoic acid,C[C@@H](Oc1ccc(Oc2ccc(cn2)C(F)(F)F)cc1)C(O)=O,-2.6227956692,G2,3.744600000000002,73.48080000000002,4.0,1.0,8.0,5.0,2.0,0.0,0.0,2.0,68.65,128.84736628412617,2.019464302385253
"1,1-bis[(2-methylbutan-2-yl)peroxy]cyclohexane",CCC(C)(C)OOC1(CCCCC1)OOC(C)(C)CC,-5.4600374185,G4,4.920400000000005,78.89600000000007,4.0,0.0,4.0,8.0,0.0,1.0,1.0,1.0,36.92,123.52032313975356,2.61712741564938
"1,2-Dihydro-2,2,4-trimethylquinoline, oligomers",CC1=CC(C)(C)Nc2ccccc12,-5.238695803500001,G5,3.2940000000000014,57.794700000000034,1.0,1.0,1.0,0.0,1.0,0.0,1.0,2.0,12.03,79.47548380377118,2.54974883069777
1-chlorooctane,CCCCCCCCCl,-5.1722437893,G3,3.5857000000000028,44.09600000000002,0.0,0.0,1.0,6.0,0.0,0.0,0.0,0.0,0.0,63.597112055487486,2.595082706793886
"2,2,4,4,6,6,8,8,10,10,12,12-dodecamethyl-3,5,7,9,11-pentaoxa-2,4,6,8,10,12-hexasilatridecane",C[Si](C)(C)O[Si](C)(C)O[Si](C)(C)O[Si](C)(C)O[Si](C)(C)O[Si](C)(C)C,-5.661813631699999,G1,5.5464000000000055,122.04500000000009,5.0,0.0,11.0,10.0,0.0,0.0,0.0,0.0,46.150000000000006,162.57043342386498,5.012260942607009
Tetra(10B)boron carbide,B12B3B4B1C234,-4.7424030214,G2,-1.3084000000000002,25.709,0.0,0.0,4.0,0.0,0.0,4.0,4.0,4.0,0.0,31.938631004787503,2.711083505599865
"2-(2H-1,2,3-benzotriazol-2-yl)-4-(2,4,4-trimethylpentan-2-yl)phenol",CC(C)(C)CC(C)(C)c1ccc(O)c(c1)n2nc3ccccc3n2,-5.5097937283,G2,4.839900000000005,97.62780000000004,4.0,1.0,4.0,3.0,3.0,0.0,0.0,3.0,50.94,142.6792675309772,2.058800388207291
"2-(2H-1,2,3-benzotriazol-2-yl)-4-methylphenol",Cc1ccc(O)c(c1)n2nc3ccccc3n2,-5.3526667277,G3,2.43452,65.26680000000002,4.0,1.0,4.0,1.0,3.0,0.0,0.0,3.0,50.94,98.12467273020091,2.231574637429138
2-benzoyl-5-(octyloxy)phenol,CCCCCCCCOc1ccc(c(O)c1)C(=O)c2ccccc2,-5.5137980476,G2,5.362500000000006,96.85230000000004,3.0,1.0,3.0,10.0,2.0,0.0,0.0,2.0,46.53,143.84227743687714,1.847847451861207
2-butyloctan-1-ol,CCCCCCC(CO)CCCC,-5.2703037605,G1,3.755500000000003,58.85980000000006,1.0,1.0,1.0,9.0,0.0,0.0,0.0,0.0,20.23,83.54784803838825,3.2537028970466646
2-decyltetradecan-1-ol,CCCCCCCCCCCCC(CO)CCCCCCCCCC,-5.549815883300001,G1,8.436700000000007,114.2638000000001,1.0,1.0,1.0,21.0,0.0,0.0,0.0,0.0,20.23,159.9271534111476,3.276407751325816
2-dodecylhexadecan-1-ol,CCCCCCCCCCCCCCC(CO)CCCCCCCCCCCC,-5.6135997753,G1,9.997099999999996,132.73180000000005,1.0,1.0,1.0,25.0,0.0,0.0,0.0,0.0,20.23,185.38692186873405,3.266926025531704
2-ethyl-1-{[(2-ethylhexyl)oxy]methoxy}hexane,CCCCC(CC)COCOCC(CC)CCCC,-5.4353234735,G1,5.409900000000006,83.38300000000008,2.0,0.0,2.0,14.0,0.0,0.0,0.0,0.0,18.46,120.80541531718904,3.497669211486053
2-hexyldecan-1-ol,CCCCCCCCC(CO)CCCCCC,-5.3846168146,G1,5.315900000000005,77.32780000000007,1.0,1.0,1.0,13.0,0.0,0.0,0.0,0.0,20.23,109.0076164959747,3.2841558880602304
"2-tert-butyl-6-(5-chloro-2H-1,2,3-benzotriazol-2-yl)-4-methylphenol",Cc1cc(n2nc3ccc(Cl)cc3n2)c(O)c(c1)C(C)(C)C,-5.4994176265,G2,4.3854200000000025,88.97680000000004,4.0,1.0,5.0,1.0,3.0,0.0,0.0,3.0,50.94,133.88770741466902,2.235872867495884
2-tert-butyl-6-[(3-tert-butyl-5-ethyl-2-hydroxyphenyl)methyl]-4-ethylphenol,CCc1cc(Cc2cc(CC)cc(c2O)C(C)(C)C)c(O)c(c1)C(C)(C)C,-5.5665093776,G2,6.408400000000008,115.17560000000006,2.0,2.0,2.0,4.0,2.0,0.0,0.0,2.0,40.46,164.82121231710894,2.635012118953408
2-tetradecyloctadecan-1-ol,CCCCCCCCCCCCCCCCC(CO)CCCCCCCCCCCCCC,-5.66920434,G1,11.557499999999983,151.19979999999984,1.0,1.0,1.0,29.0,0.0,0.0,0.0,0.0,20.23,210.8466903263205,3.257673259986062
4-amino-N-(2-ethylhexyl)benzene-1-sulfonamide,CCCCC(CC)CN[S](=O)(=O)c1ccc(N)cc1,-5.453967766799999,G1,2.7635000000000005,79.34890000000004,3.0,2.0,5.0,8.0,1.0,0.0,0.0,1.0,72.19,116.00146880770568,2.6136360098361164
"5-tert-butyl-2-[5-(5-tert-butyl-1,3-benzoxazol-2-yl)thiophen-2-yl]-1,3-benzoxazole",CC(C)(C)c1ccc2oc(nc2c1)c3sc(cc3)c4oc5ccc(cc5n4)C(C)(C)C,-5.634046793,G2,7.959500000000005,127.72500000000004,5.0,0.0,5.0,2.0,5.0,0.0,0.0,5.0,52.06,185.4967752707265,1.4965106811951068
Pigment Red 224,O=C1OC(=O)c2ccc3c4ccc5C(=O)OC(=O)c6ccc(c7ccc1c2c37)c4c56,-5.5936426625,G1,3.546000000000002,114.64800000000002,6.0,0.0,6.0,0.0,7.0,0.0,0.0,7.0,94.56,163.73516211837247,1.9470579005489248
"O,O,O-tris(4-nitrophenyl) thiophosphate",[O-][N+](=O)c1ccc(O[P](=S)(Oc2ccc(cc2)[N+]([O-])=O)Oc3ccc(cc3)[N+]([O-])=O)cc1,-5.6788341975,G1,5.172500000000003,115.4582,10.0,0.0,14.0,9.0,3.0,0.0,0.0,3.0,157.11,184.225082490858,1.8896076724364452
bis(11-methyldodecyl) phthalate,CC(C)CCCCCCCCCCOC(=O)c1ccccc1C(=O)OCCCCCCCCCCC(C)C,-5.724958731699999,G1,10.333999999999994,159.7889999999997,4.0,0.0,4.0,24.0,1.0,0.0,0.0,1.0,52.60000000000001,234.1999169817034,2.1343696311526954
diindium trioxide,[O--].[O--].[O--].[In+3].[In+3],-5.443471085900001,G1,-1.118,13.5675,0.0,0.0,5.0,0.0,0.0,0.0,0.0,0.0,85.5,67.62694762037896,-0.0
diisotridecyl adipate,CC(C)CCCCCCCCCCOC(=O)CCCCC(=O)OCCCCCCCCCCC(C)C,-5.708288296799999,G4,9.967,153.16799999999978,4.0,0.0,4.0,27.0,0.0,0.0,0.0,0.0,52.60000000000001,224.6025912332258,3.2991587595383853
docosan-1-ol,CCCCCCCCCCCCCCCCCCCCCCO,-5.5140281479,G1,7.800600000000008,105.09980000000007,1.0,1.0,1.0,20.0,0.0,0.0,0.0,0.0,20.23,147.19726918235438,2.9219621943934726
dodecyl 3-{[3-(dodecyloxy)-3-oxopropyl]sulfanyl}propanoate,CCCCCCCCCCCCOC(=O)CCSCCC(=O)OCCCCCCCCCCCC,-5.711686621799999,G1,9.428,152.16499999999982,5.0,0.0,5.0,28.0,0.0,0.0,0.0,0.0,52.60000000000001,221.9958170297978,3.2715698565258533
ethyl 4-[[(methylphenylamino)methylene]amino]benzoate,CCOC(=O)c1ccc(cc1)N=CN(C)c2ccccc2,-5.4507770249,G1,3.659500000000002,85.39550000000004,3.0,0.0,4.0,5.0,2.0,0.0,0.0,2.0,41.9,124.24343138315818,2.0288891184620623
hexadecyl(trimethoxy)silane,CCCCCCCCCCCCCCCC[Si](OC)(OC)OC,-5.5398636413,G1,6.345800000000007,101.90000000000008,3.0,0.0,4.0,18.0,0.0,0.0,0.0,0.0,27.69,146.39981760759105,3.245766365051746
hexanal; pentanal; propanedial,CCCCCC=O.CCCCC=O.O=CCC=O,-5.4122219139,G1,2.9154000000000018,72.54000000000005,4.0,0.0,4.0,9.0,0.0,0.0,0.0,0.0,68.28,110.141249222219,-1.9047202614270086e-07
hydrate iron potassium,[O--].[O--].[K+].[Fe+3],-5.1036019152,G1,-3.2361,1.373,0.0,0.0,4.0,0.0,0.0,0.0,0.0,0.0,57.0,77.8481695843158,-0.0
hydrate lithium potassium titanium,[Li].O.[K].[Ti],-5.0489115819,G1,-1.5888,15.1218,0.0,0.0,4.0,0.0,0.0,0.0,0.0,0.0,31.5,95.0754950241351,-0.0
icosan-1-ol,CCCCCCCCCCCCCCCCCCCCO,-5.4750243489,G1,7.020400000000008,95.86580000000008,1.0,1.0,1.0,18.0,0.0,0.0,0.0,0.0,20.23,134.46738495356115,2.901443984538413
manganese(3+) ion ammonium (phosphonatooxy)phosphonate,[NH4+].[Mn+3].[O-][P]([O-])(=O)O[P]([O-])([O-])=O,-5.392552750599999,G1,-2.9659,22.282800000000005,7.0,1.0,11.0,2.0,0.0,0.0,0.0,0.0,172.11,72.49538113684142,-3.1999997430000204e-07
octadecan-1-ol,CCCCCCCCCCCCCCCCCCO,-5.432168875,G2,6.240200000000008,86.63180000000007,1.0,1.0,1.0,16.0,0.0,0.0,0.0,0.0,20.23,121.73750072476794,2.8766966445353965
propan-2-yl dodecanoate,CCCCCCCCCCCC(=O)OC(C)C,-5.384537990399999,G1,4.858900000000005,73.07200000000006,2.0,0.0,2.0,11.0,0.0,0.0,0.0,0.0,26.3,107.12350795893272,3.10164393503676
tetracosan-1-ol,CCCCCCCCCCCCCCCCCCCCCCCCO,-5.549815883300001,G1,8.580800000000004,114.3338000000001,1.0,1.0,1.0,22.0,0.0,0.0,0.0,0.0,20.23,159.9271534111476,2.939250071405689
undec-3-ene,CCCCCCC\C=C\CC,-5.1883574821,G3,4.313100000000004,52.80700000000004,0.0,0.0,0.0,7.0,0.0,0.0,0.0,0.0,0.0,71.69906913961137,2.8452531812362967
vinyl laurate,CCCCCCCCCCCC(=O)OC=C,-5.3547996853,G1,4.594000000000004,68.13300000000005,2.0,0.0,2.0,11.0,0.0,0.0,0.0,0.0,26.3,100.06896281235188,3.0338210568951656
zinc(2+) ion bis((dibutylcarbamothioyl)sulfanide),[Zn++].CCCCN(CCCC)C([S-])=S.CCCCN(CCCC)C([S-])=S,-5.6759230824,G1,5.438300000000006,122.70400000000006,4.0,0.0,7.0,12.0,0.0,0.0,0.0,0.0,6.48,191.3797873302859,-3.723076823100594e-07
methyl 3-[3-(benzotriazol-2-yl)-5-tert-butyl-4-hydroxyphenyl]propanoate,COC(=O)CCc1cc(n2nc3ccccc3n2)c(O)c(c1)C(C)(C)C,-6.849323575900001,G1,3.529200000000002,99.56680000000004,6.0,1.0,6.0,4.0,3.0,0.0,0.0,3.0,77.24000000000001,151.9543348605279,2.1113776304983407
"2,5,7,8-tetramethyl-2-(4,8,12-trimethyltridecyl)-3,4-dihydro-2H-1-benzopyran-6-yl acetate",CC(C)CCC[C@@H](C)CCC[C@@H](C)CCC[C@]1(C)CCc2c(C)c(OC(C)=O)c(C)c(C)c2O1,-5.7715452251,G1,9.059960000000004,144.03499999999988,3.0,0.0,3.0,13.0,1.0,0.0,1.0,2.0,35.53,209.93773738494065,1.8212054089992105
"1,4-bis(iodomethyl)cyclohexane",ICC1CCC(CI)CC1,-5.7481975718,G1,3.6628000000000025,63.22200000000003,0.0,0.0,2.0,2.0,0.0,1.0,1.0,1.0,0.0,90.81169091716386,2.173831978453414
"[1,3(or 1,4)-phenylenebis(1-methylethylidene)]bis[tert-butyl] peroxide",CC(C)(C)OOC(C)(C)c1ccc(cc1)C(C)(C)OOC(C)(C)C,-5.7371515873000005,G2,5.650200000000006,96.34000000000007,4.0,0.0,4.0,6.0,1.0,0.0,0.0,1.0,36.92,146.85336427055367,2.8384135545500784
Boehmite (Al(OH)O),[OH-].[O--].[Al+3],-5.0252479516,G1,-0.6764,8.3763,1.0,0.0,3.0,0.0,0.0,0.0,0.0,0.0,58.5,29.203497608719164,-0.0
2-decyltetradecanoic acid,CCCCCCCCCCCCC(CCCCCCCCCC)C(O)=O,-5.867639521599999,G1,8.529000000000007,114.8138000000001,1.0,1.0,2.0,21.0,0.0,0.0,0.0,0.0,37.3,164.08867551119135,3.462612790466041
ZIRCONIUM,[Zr],-5.35804912,G4,-0.0025,0.0,0.0,0.0,1.0,0.0,0.0,0.0,0.0,0.0,0.0,26.616735350494555,0.0
"2,2,4,6,6-pentamethyl-4-[(trimethylsilyl)oxy]-3,5-dioxa-2,4,6-trisilaheptane",C[Si](C)(C)O[Si](C)(O[Si](C)(C)C)O[Si](C)(C)C,-5.9360261722,G1,4.109600000000003,84.91100000000004,3.0,0.0,7.0,6.0,0.0,0.0,0.0,0.0,27.69,111.6282859008776,4.947050651726975
N-(2-ethoxyphenyl)-N'-[4-(10-methylundecyl)phenyl]ethanediamide,CCOc1ccccc1NC(=O)C(=O)Nc2ccc(CCCCCCCCCC(C)C)cc2,-6.0994494699,G1,6.981800000000008,136.79039999999995,3.0,2.0,5.0,14.0,2.0,0.0,0.0,2.0,67.42999999999999,198.86388495271729,1.6690637732324365
Silicon nitride,N12[Si]34N5[Si]16N3[Si]25N46,-5.6698930776,G1,-2.4172,24.617999999999995,4.0,0.0,7.0,0.0,0.0,13.0,13.0,13.0,12.96,42.48102800738141,2.424366106925305
"2-ethylhexyl 3,5,5-trimethylhexanoate",CCCCC(CC)COC(=O)CC(C)CC(C)(C)C,-5.9549769717,G2,5.2084000000000055,82.11800000000007,2.0,0.0,2.0,9.0,0.0,0.0,0.0,0.0,26.3,119.8533921877259,3.901283560037207
calcium titanium trioxide,[O--].[O--].[O--].[Ca++].[Ti+4],-5.6562324003,G1,-0.7397,7.813499999999999,0.0,0.0,5.0,0.0,0.0,0.0,0.0,0.0,85.5,74.93263965489304,-0.0
"heptyl 3-[3-(2H-1,2,3-benzotriazol-2-yl)-5-tert-butyl-4-hydroxyphenyl]propanoate nonyl 3-[3-(2H-1,2,3-benzotriazol-2-yl)-5-tert-butyl-4-hydroxyphenyl]propanoate octyl 3-[3-(2H-1,2,3-benzotriazol-2-yl)-5-tert-butyl-4-hydroxyphenyl]propanoate",CCC(C)CCCOC(=O)CCc1cc(n2nc3ccccc3n2)c(O)c(c1)C(C)(C)C,-6.1639401792,G2,5.725700000000007,127.19880000000006,6.0,1.0,6.0,9.0,3.0,0.0,0.0,3.0,77.24000000000001,190.14398754690757,1.77345646641
dicalcium (phosphonatooxy)phosphonate,[Ca++].[Ca++].[O-][P]([O-])(=O)O[P]([O-])([O-])=O,-5.998459357100001,G1,-4.1012,27.805999999999997,7.0,0.0,11.0,2.0,0.0,0.0,0.0,0.0,135.61,121.99554649112244,-3.1999997430000204e-07
"4-[(4-hydroxy-9,10-dioxo-9,10-dihydroanthracen-1-yl)amino]phenyl methanesulfonate",C[S](=O)(=O)Oc1ccc(Nc2ccc(O)c3C(=O)c4ccccc4C(=O)c23)cc1,-6.214227984500001,G1,3.249600000000002,106.61030000000002,7.0,2.0,8.0,4.0,3.0,0.0,1.0,4.0,109.77,166.24967434452873,1.7377672312529389