Name,SMILES,Solubility,Group,MolLogP,MolMR,NumHAcceptors,NumHDonors,NumHeteroatoms,NumRotatableBonds,NumAromaticRings,NumSaturatedRings,NumAliphaticRings,RingCount,TPSA,LabuteASA,BalabanJ
4-(2-{3-[2-(4-hydroxyphenyl)propan-2-yl]phenyl}propan-2-yl)phenol,CC(Cc1cccc(CC(C)c2ccc(O)cc2)c1)c3ccc(O)cc3,-6.238635640399999,G1,5.790200000000007,106.89360000000003,2.0,2.0,2.0,6.0,3.0,0.0,0.0,3.0,40.46,155.3237117223967,1.672361506908547
N-(3-methylphenyl)-4-{4-[(3-methylphenyl)(phenyl)amino]phenyl}-N-phenylaniline,Cc1cccc(c1)N(c2ccccc2)c3ccc(cc3)c4ccc(cc4)N(c5ccccc5)c6cccc(C)c6,-6.4121983796,G1,10.910039999999988,170.7179999999995,2.0,0.0,2.0,7.0,6.0,0.0,0.0,6.0,6.48,236.96642571901705,1.32084868349153
N-methyl-N-phenyl{[methyl(phenyl)carbamothioyl]disulfanyl}carbothioamide,CN(C(=S)SSC(=S)N(C)c1ccccc1)c2ccccc2,-6.2607699922,G2,5.210400000000004,110.068,4.0,0.0,6.0,2.0,2.0,0.0,0.0,2.0,6.48,149.83167575504405,1.8946866831024087
"N-{2-[(2-cyano-4,6-dinitrophenyl)diazenyl]-5-(diethylamino)phenyl}acetamide",CCN(CC)c1ccc(N=Nc2c(cc(cc2[N+]([O-])=O)[N+]([O-])=O)C#N)c(NC(C)=O)c1,-6.327772594400001,G1,4.594680000000004,112.94850000000002,9.0,1.0,12.0,8.0,2.0,0.0,0.0,2.0,167.13,176.65961905114983,2.6073291407288486
"Phenol, 4-methyl-, reaction products with dicyclopentadiene and isobutylene",CC(C)=C.Cc1ccc(O)cc1.C2C=CC3C4CC(C=C4)C23,-6.1709273189,G2,5.667620000000005,94.80580000000003,1.0,1.0,1.0,0.0,1.0,1.0,3.0,4.0,20.23,134.6251283375601,1.3325396675189724e-07
"Sorbitan monolaurate, ethoxylated",CCCCCCCCCCCC(=O)OCCOCC(OCCO)C1OCC(OCCO)C1OCCO,-6.417202563200001,G1,1.9984000000000008,133.83940000000004,10.0,3.0,10.0,25.0,0.0,1.0,1.0,1.0,133.14,216.08246746788865,2.267923922124221
16-methylheptadecan-1-ol,CC(C)CCCCCCCCCCCCCCCO,-6.256077615900001,G1,6.096100000000007,86.56180000000008,1.0,1.0,1.0,15.0,0.0,0.0,0.0,0.0,20.23,121.73750072476794,2.914073356109064
"2,3-bis(acetyloxy)propyl dodecanoate",CCCCCCCCCCCC(=O)OCC(COC(C)=O)OC(C)=O,-6.378367614400001,G1,3.945300000000002,94.99000000000008,6.0,0.0,6.0,15.0,0.0,0.0,0.0,0.0,78.9,151.13341107562047,3.7044575103015074
"2-Butenedioic acid (E)-, di-C12-18-alkyl esters",CCCCCCCCCCCCCCCOC(=O)/C=C/C(=O)OCCCCCCCCCCCCCCC,-6.5537875846,G1,10.811399999999992,162.44799999999967,4.0,0.0,4.0,30.0,0.0,0.0,0.0,0.0,52.60000000000001,236.6428724298348,3.3543056887398905
"2-Butenedioic acid (E)-, di-C8-18-alkyl esters",CCCCCCCCOC(=O)\C=C\C(=O)OCCCCCCCC,-6.356030959,G1,5.350000000000006,97.81000000000007,4.0,0.0,4.0,16.0,0.0,0.0,0.0,0.0,52.60000000000001,147.5336828282822,3.4788856778776065
bis(4-isocyanatophenyl) [(4-isocyanatophenyl)sulfanyl]phosphonate,O=C=Nc1ccc(O[P](=S)(Oc2ccc(cc2)N=C=O)Oc3ccc(cc3)N=C=O)cc1,-6.4917192558000005,G1,5.349800000000004,118.8395,10.0,0.0,11.0,9.0,3.0,0.0,0.0,3.0,115.98,186.5315154242601,1.8861579317760235
bis(8-methylnonyl) but-2-enedioate,CC(C)CCCCCCCOC(=O)\C=C\C(=O)OCCCCCCCC(C)C,-6.4222745911,G1,6.622200000000008,116.13800000000008,4.0,0.0,4.0,18.0,0.0,0.0,0.0,0.0,52.60000000000001,172.99345128586864,3.477842355482613
didodecyl but-2-enedioate,CCCCCCCCCCCCOC(=O)\C=C\C(=O)OCCCCCCCCCCCC,-6.4797384219000005,G1,8.470800000000008,134.746,4.0,0.0,4.0,24.0,0.0,0.0,0.0,0.0,52.60000000000001,198.4532197434551,3.394917032268413
propan-2-yl (9Z)-octadec-9-enoate,CCCCCCCC\C=C/CCCCCCCC(=O)OC(C)C,-6.3351890163,G1,6.975500000000008,100.68000000000008,2.0,0.0,2.0,16.0,0.0,0.0,0.0,0.0,26.3,144.62355761312816,3.175259500107785
triethoxy(octyl)silane,CCCCCCCC[Si](OCC)(OCC)OCC,-6.327740788400001,G1,4.395300000000004,78.81500000000007,3.0,0.0,4.0,13.0,0.0,0.0,0.0,0.0,27.69,114.57510703560796,3.9686872686555104
"2-[4-(4-oxo-4H-3,1-benzoxazin-2-yl)phenyl]-4H-3,1-benzoxazin-4-one",O=C1OC(=Nc2ccccc12)c3ccc(cc3)C4=Nc5ccccc5C(=O)O4,-6.5170402935,G1,4.023400000000002,104.988,6.0,0.0,6.0,2.0,5.0,0.0,0.0,5.0,86.2,157.2808944050941,1.5814985549894447
(13Z)-docos-13-enamide,CCCCCCCC\C=C/CCCCCCCCCCCC(N)=O,-6.5283921465,G2,7.069600000000007,107.11440000000007,1.0,1.0,2.0,19.0,0.0,0.0,0.0,0.0,43.09,151.2148451950306,3.0620091981522943
"1,1',1''-methanetriyltris(4-isocyanatobenzene)",O=C=Nc1ccc(cc1)C(c2ccc(cc2)N=C=O)c3ccc(cc3)N=C=O,-6.5650965952,G1,4.768700000000004,103.6155,6.0,0.0,6.0,6.0,3.0,0.0,0.0,3.0,88.28999999999999,160.17589374692312,2.07486288638975
"1,2-Benzenedicarboxylic acid, di-C8-10-branched alkyl esters, C9-rich",CC(C)CCCCCCOC(=O)c1ccccc1C(=O)OCCCCCCC(C)C,-6.6218178985,G4,7.213200000000008,122.8530000000001,4.0,0.0,4.0,16.0,1.0,0.0,0.0,1.0,52.60000000000001,183.28038006653048,2.322002410863764
"1,6-bis(2-ethylhexyl) hexanedioate",CCCCC(CC)COC(=O)CCCCC(=O)OCC(CC)CCCC,-6.5688749453,G4,6.066000000000007,106.99800000000008,4.0,0.0,4.0,17.0,0.0,0.0,0.0,0.0,52.60000000000001,160.95317008925963,3.731744715310046
"1,6-bis(2-methylnonyl) hexanedioate",CC(C)CCCCCCCOC(=O)CCCCC(=O)OCCCCCCCC(C)C,-6.6301043221,G2,7.62640000000001,125.4660000000001,4.0,0.0,4.0,21.0,0.0,0.0,0.0,0.0,52.60000000000001,186.4129385468461,3.330719761879528
"1,6-bis(7-methyloctyl) hexanedioate",CC(C)CCCCCCOC(=O)CCCCC(=O)OCCCCCCC(C)C,-6.6005678007,G3,6.8462000000000085,116.2320000000001,4.0,0.0,4.0,19.0,0.0,0.0,0.0,0.0,52.60000000000001,173.68305431805288,3.343835773533131
1-(octyloxy)octane,CCCCCCCCOCCCCCCCC,-6.3846168146,G1,5.724000000000006,77.57100000000007,1.0,0.0,1.0,14.0,0.0,0.0,0.0,0.0,9.23,109.32692797328556,2.846262262649495
1-(vinyloxy)octadecane,CCCCCCCCCCCCCCCCCCOC=C,-6.4720818187,G2,7.408000000000007,95.69500000000008,1.0,0.0,1.0,18.0,0.0,0.0,0.0,0.0,9.23,134.09709339868778,2.9147438317396728
"2-(3,4-dihydroxyoxolan-2-yl)-2-hydroxyethyl 3-methylheptadecanoate",CC(C)CCCCCCCCCCCCCCC(O)=O.OC[C@H](O)[C@@H](O)[C@H](O)C(O)O,-6.6557423758,G1,2.5605,120.44360000000007,7.0,7.0,8.0,19.0,0.0,0.0,0.0,0.0,158.68,187.4949670635,0.0
"2-ethylhexyl 2-cyano-3,3-diphenylprop-2-enoate",CCCCC(CC)COC(=O)C(C#N)=C(c1ccccc1)c2ccccc2,-6.5580902807,G1,5.771680000000005,108.78400000000003,3.0,0.0,3.0,9.0,2.0,0.0,0.0,2.0,50.09,161.84584667715538,2.3340701562538846
"2-fluoro-4-[4-(4-propylcyclohexyl)cyclohexyl]-1-(3,4,5-trifluorophenyl)benzene",CCCC1CCC(CC1)C2CCC(CC2)c3ccc(c(F)c3)c4cc(F)c(F)c(F)c4,-6.6360312962,G1,8.790300000000002,116.76500000000009,0.0,0.0,4.0,5.0,2.0,2.0,2.0,4.0,0.0,182.6131083461566,1.3782994523104823
2-octyldodecan-1-ol,CCCCCCCCCCC(CO)CCCCCCCC,-6.4750243489,G1,6.8763000000000085,95.79580000000009,1.0,1.0,1.0,17.0,0.0,0.0,0.0,0.0,20.23,134.46738495356115,3.284224046417563
Naphthalic anhydride,O=C1OC(=O)c2cccc3cccc1c23,-6.2970532498,G1,2.1504000000000003,53.69400000000002,3.0,0.0,3.0,0.0,2.0,0.0,1.0,3.0,43.370000000000005,85.27371015609056,2.5596903090526832
"4-(2,4,4-trimethylpentan-2-yl)-N-[4-(2,4,4-trimethylpentan-2-yl)phenyl]aniline",CC(C)(C)CC(C)(C)c1ccc(Nc2ccc(cc2)C(C)(C)CC(C)(C)C)cc1,-6.5951201849,G1,8.857800000000003,130.36270000000007,1.0,1.0,1.0,6.0,2.0,0.0,0.0,2.0,12.03,179.8774333395148,2.091567019404517
N-[3-(dimethylamino)propyl]docosanamide,CCCCCCCCCCCCCCCCCCCCCC(=O)NCCCN(C)C,-6.6281415672,G2,7.876200000000009,134.19470000000004,2.0,1.0,3.0,24.0,0.0,0.0,0.0,0.0,32.34,189.69896395599665,3.099998932756766
"Octadecan-1-ol, ethoxylated",CCCCCCCCCCCCCCCCCCOCC[O],-6.4963012647000005,G1,6.695000000000007,95.9185000000001,1.0,0.0,2.0,19.0,0.0,0.0,0.0,0.0,29.13,139.58093018306803,2.9121609469850025
Talc (Mg3H2(SiO3)4),[Mg++].[Mg++].[Mg++].O[Si]([O-])=O.O[Si]([O-])=O.[O-][Si]([O-])=O.[O-][Si]([O-])=O,-6.5789404760000005,G1,-11.3888,47.4616,10.0,2.0,19.0,0.0,0.0,0.0,0.0,0.0,247.1,160.35979429588824,-1.9199999957333342e-08
"[phenyl(2,4,6-trimethylbenzoyl)phosphoryl](2,4,6-trimethylphenyl)methanone",Cc1cc(C)c(c(C)c1)C(=O)[P](=O)(C(=O)c2c(C)cc(C)cc2C)c3ccccc3,-6.6216674424,G1,6.206320000000007,123.64950000000002,3.0,0.0,4.0,5.0,3.0,0.0,0.0,3.0,51.21,178.07777254697876,2.3110006484735344
dialuminium(3+) ion dicalcium pentaoxidandiide,[O--].[O--].[O--].[O--].[O--].[Al+3].[Al+3].[Ca++].[Ca++],-6.3306470932000005,G1,-2.1172,26.4485,0.0,0.0,9.0,0.0,0.0,0.0,0.0,0.0,142.5,134.75080687639738,-0.0
dimethoxybis(propan-2-yl)silane,CO[Si](OC)(C(C)C)C(C)C,-6.2463311334,G1,2.5414000000000003,49.96800000000003,2.0,0.0,3.0,4.0,0.0,0.0,0.0,0.0,18.46,71.14858059081317,4.4645094480190135
dodecanoyl dodecaneperoxoate,CCCCCCCCCCCC(=O)OOC(=O)CCCCCCCCCCC,-6.6005678007,G3,7.829600000000009,115.8720000000001,4.0,0.0,4.0,20.0,0.0,0.0,0.0,0.0,52.6,173.6123496337912,3.3171020835488734
octyl (2R)-2-(4-chloro-2-methylphenoxy)propanoate,CCCCCCCCOC(=O)[C@@H](C)Oc1ccc(Cl)cc1C,-6.5143670911000005,G1,5.319420000000005,90.61400000000006,3.0,0.0,4.0,10.0,1.0,0.0,0.0,1.0,35.53,138.50258727819548,2.242455437207009
silver cyanide,[Ag+].[C-]#N,-6.1267351667,G2,0.09387,4.968,1.0,0.0,2.0,0.0,0.0,0.0,0.0,0.0,23.79,34.76523356259193,0.0
titanium(2+) ion dihydride,[Ti++].[H-].[H-],-5.6979525644,G1,0.2225,2.224,0.0,0.0,1.0,0.0,0.0,0.0,0.0,0.0,0.0,25.34420811341678,-0.0
titanium(4+) ion bis(oxosilanebis(olate)),[Ti+4].[O-][Si]([O-])=O.[O-][Si]([O-])=O,-6.3011016483,G1,-5.757700000000001,12.880999999999998,6.0,0.0,9.0,0.0,0.0,0.0,0.0,0.0,126.38,68.46542593027354,-7.199999951999999e-08
"2,5-bis(1,1-dimethylpropyl)benzene-1,4-diol",CCC(C)(C)c1cc(O)c(cc1O)C(C)(C)CC,-6.495513117200001,G1,4.473000000000004,76.40560000000006,2.0,2.0,2.0,4.0,1.0,0.0,0.0,1.0,40.46,110.66929176785509,3.379425183237454
diiron(3+) ion distrontium(2+) ion pentaoxidandiide,[O--].[O--].[O--].[O--].[O--].[Fe+3].[Fe+3].[Sr++].[Sr++],-6.6614873159000005,G1,-1.3605999999999998,14.940499999999998,0.0,0.0,9.0,0.0,0.0,0.0,0.0,0.0,142.5,148.73947701600153,-0.0
zirconium dihydride,[H-].[H-].[Zr++],-6.066512277899999,G1,0.2225,2.224,0.0,0.0,1.0,0.0,0.0,0.0,0.0,0.0,0.0,29.586332089485616,-0.0
"10,13-dimethyl-17-(2-methyl-1,3-dioxolan-2-yl)-1,2,4,9,10,11,12,13,14,15,16,17-dodecahydrospiro[cyclopenta[a]phenanthrene-3,2'-[1,3]dioxolane]",CC1(OCCO1)C2CCC3C4=CC=C5CC6(CCC5(C)C4CCC23C)OCCO6,-6.7001197149000005,G1,4.991600000000005,110.11300000000006,4.0,0.0,4.0,1.0,0.0,5.0,6.0,6.0,36.92,174.5378497058318,1.326371087356619
"[(1S,2R,5S)-5-methyl-2-propan-2-ylcyclohexyl] acetate",CC(C)[C@H]1CC[C@H](C)C[C@@H]1OC(C)=O,-4.0668869332,G1,3.0103000000000018,56.89700000000005,2.0,0.0,2.0,2.0,0.0,1.0,1.0,1.0,26.3,87.02285046221364,2.583440987814273
2-{[2-(acetyloxy)ethyl]({4-[(E)-2-(2-chloro-4-nitrophenyl)diazen-1-yl]-3-acetamidophenyl})amino}ethyl acetate,CC(=O)Nc1cc(ccc1N=Nc2ccc(cc2Cl)[N+]([O-])=O)N(CCOC(C)=O)CCOC(C)=O,-6.963714866599999,G1,4.554600000000004,128.5071000000001,10.0,1.0,13.0,11.0,2.0,0.0,0.0,2.0,152.79999999999998,205.56229087635413,2.332903257014509
"(2R)-2-[(2R,3R,4S)-3,4-dihydroxyoxolan-2-yl]-2-hydroxyethyl hexadecanoate",CCCCCCCCCCCCCCCC(=O)OCC(O)[C@H]1OC[C@@H](O)[C@@H]1O,-6.9058735609,G1,3.492400000000002,109.03140000000008,6.0,3.0,6.0,17.0,0.0,1.0,1.0,1.0,96.22,170.16851809227467,1.8636903065557135
"1,3-bis(heptanoyloxy)propan-2-yl heptanoate",CCCCCCC(=O)OCC(COC(=O)CCCCCC)OC(=O)CCCCCC,-6.9330922951,G1,5.895800000000007,118.07500000000007,6.0,0.0,6.0,20.0,0.0,0.0,0.0,0.0,78.9,182.95812164760352,4.366932677912136
"1,3-bis[(2-ethylhexanoyl)oxy]propan-2-yl 2-ethylhexanoate",CCCCC(CC)C(=O)OCC(COC(=O)C(CC)CCCC)OC(=O)C(CC)CCCC,-6.97376589,G1,6.633800000000008,131.7160000000001,6.0,0.0,6.0,20.0,0.0,0.0,0.0,0.0,78.9,202.0529479907933,5.113091319340741
"1,6-bis(2-methylheptyl) hexanedioate",CC(C)CCCCCOC(=O)CCCCC(=O)OCCCCCC(C)C,-6.869904941000001,G1,6.066000000000007,106.99800000000008,4.0,0.0,4.0,17.0,0.0,0.0,0.0,0.0,52.60000000000001,160.95317008925966,3.358567820355776
1-(octadecyloxy)octadecane,CCCCCCCCCCCCCCCCCCOCCCCCCCCCCCCCCCCCC,-7.0195208893,G1,13.525999999999977,169.9109999999996,1.0,0.0,1.0,34.0,0.0,0.0,0.0,0.0,9.23,236.62577026121784,3.0041568321208016
"2,2-bis[(heptanoyloxy)methyl]butyl heptanoate (non-preferred name)",CCCCCCC(=O)OCC(CC)(COC(=O)CCCCCC)COC(=O)CCCCCC,-6.97376589,G1,6.923600000000008,131.87800000000007,6.0,0.0,6.0,22.0,0.0,0.0,0.0,0.0,78.9,202.0529479907933,4.781939646493263
"2,2-dimethylpropane-1,3-diyl dioctanoate",CCCCCCCC(=O)OCC(C)(C)COC(=O)CCCCCCC,-6.8531467823000005,G2,5.820000000000007,102.45100000000008,4.0,0.0,4.0,16.0,0.0,0.0,0.0,0.0,52.6,154.58822797486303,3.740300634776958
2-bromo-N-[4-chloro-2-(2-chlorobenzoyl)phenyl]acetamide,Clc1ccc(NC(=O)CBr)c(c1)C(=O)c2ccccc2Cl,-6.8888082879,G1,4.557800000000002,88.76020000000001,2.0,1.0,6.0,4.0,2.0,0.0,0.0,2.0,46.17,139.93031011185116,2.4683046593056117
2-ethylhexyl octadecanoate,CCCCCCCCCCCCCCCCCC(=O)OCCCCCCCC,-6.8994921961,G1,9.151600000000002,123.88100000000011,2.0,0.0,2.0,23.0,0.0,0.0,0.0,0.0,26.3,177.13787121729547,3.111805563052441
2-tetradecyloxirane,CCCCCCCCCCCCCCC1CO1,-6.6820204584,G2,5.476400000000005,75.43500000000007,1.0,0.0,1.0,13.0,0.0,1.0,1.0,1.0,12.53,108.32109681975636,1.60754922625042
"3-hydroxy-2,2-dimethylpropyl heptanoate",CCCCCCC(O)=O.CC(C)(CO)CO,-6.6708690081,G1,2.0386,64.34740000000005,3.0,3.0,4.0,7.0,0.0,0.0,0.0,0.0,77.76,98.30366879635328,0.0
3-methylbutyl dodecanoate,CCCCCCCCCCCC(=O)OCCC(C)C,-6.733128222,G1,5.496600000000005,82.25800000000007,2.0,0.0,2.0,13.0,0.0,0.0,0.0,0.0,26.3,119.85339218772594,3.1407417895296077
"Decanoic acid, mixed diesters with octanoic acid and propylene glycol",CCCCCCCCCC(O)=O.CCCCCCCC(O)=O.CC(O)CO,-6.8949548476,G1,5.002700000000005,110.02420000000008,4.0,4.0,6.0,15.0,0.0,0.0,0.0,0.0,115.06,165.54973483169178,-3.466951797203102e-07
"Decanoic acid, mixed esters with octanoic acid and pentaerythritol",CCCCCCCCCC(O)=O.CCCCCCCC(O)=O.OCC(CO)(CO)CO,-6.9567723715,G1,3.5852000000000017,122.03380000000008,6.0,6.0,8.0,18.0,0.0,0.0,0.0,0.0,155.51999999999998,187.868086564877,-3.839234387638026e-07
"Fatty acids, C5-9, hexaesters with dipentaerythritol",CCCCC(=O)OCC(CO)(CO)COCC(CO)(CO)CO,-6.8304564999,G1,-1.3292999999999988,81.59800000000003,8.0,5.0,8.0,14.0,0.0,0.0,0.0,0.0,136.68,136.20822194941965,4.503552654341574
"N,N'-bis(2,6-diisopropylphenyl)carbodiimide",CC(C)c1cccc(C(C)C)c1N=C=Nc2c(cccc2C(C)C)C(C)C,-6.8604110817,G1,8.317300000000005,118.42300000000006,2.0,0.0,2.0,6.0,2.0,0.0,0.0,2.0,24.72,165.02338978443717,2.617446895442971
diisodecyl azelate,CC(C)CCCCCCCOC(=O)CCCCCCCC(=O)OCCCCCCCC(C)C,-6.971983320700001,G1,8.796700000000005,139.31699999999998,4.0,0.0,4.0,24.0,0.0,0.0,0.0,0.0,52.60000000000001,205.507764890036,3.291908319111924
ditetradecyl but-2-enedioate,CCCCCCCCCCCCCCOC(=O)\C=C\C(=O)OCCCCCCCCCCCCCC,-7.0076009975,G1,10.031199999999997,153.2139999999998,4.0,0.0,4.0,28.0,0.0,0.0,0.0,0.0,52.60000000000001,223.91298820104157,3.36636443988514
docosanamide,CCCCCCCCCCCCCCCCCCCCCC(N)=O,-6.8320079078,G1,7.293600000000008,107.20840000000008,1.0,1.0,2.0,20.0,0.0,0.0,0.0,0.0,43.09,151.90444822721486,2.9653789386426435
dodecyl (9Z)-octadec-9-enoate,CCCCCCCCCCCCOC(=O)CCCCCCC\C=C\CCCCCCCC,-6.9550061959,G1,10.487999999999992,142.25499999999994,2.0,0.0,2.0,26.0,0.0,0.0,0.0,0.0,26.3,201.90803664269765,3.1955027877938305
hexadecyl 2-ethylhexanoate,CCCCCCCCCCCCCCCCOC(=O)C(CC)CCCC,-6.867639521599999,G1,8.227300000000008,114.5770000000001,2.0,0.0,2.0,20.0,0.0,0.0,0.0,0.0,26.3,164.40798698850224,3.268101548084262
hexyl dodecanoate,CCCCCCCCCCCC(=O)OCCCCCC,-6.7550878414,G1,6.030800000000006,86.94500000000008,2.0,0.0,2.0,15.0,0.0,0.0,0.0,0.0,26.3,126.21833430212256,3.1115811018036084
"isooctadecanoic acid, monoester with glycerol",CC(C)CCCCCCCCCCCCCCC(=O)OC(CO)CO,-6.855595468500001,G1,5.000200000000006,103.52760000000008,4.0,2.0,4.0,18.0,0.0,0.0,0.0,0.0,66.76,154.9016281497044,3.1979485247003527
magnesium diniobate,[O--].[O--].[O--].[O--].[O--].[O--].[O--].[Mg++].[Mg++].[Nb+5].[Nb+5],-6.8406266847,G1,-1.5982,16.313499999999998,0.0,0.0,11.0,0.0,0.0,0.0,0.0,0.0,199.5,127.5403490815842,-0.0
octadec-9-en-1-yl octadec-9-enoate,CCCCCCCCC\C=C/CCCCCCC(=O)OCCCCCCCC\C=C/CCCCCCCC,-7.0277066834,G1,12.60459999999998,169.8629999999996,2.0,0.0,2.0,31.0,0.0,0.0,0.0,0.0,26.3,239.40808629689303,3.2337269190567617
octyl octanoate,CCCCCCCCOC(=O)CCCCCCC,-6.709998828,G1,5.250600000000006,77.71100000000007,2.0,0.0,2.0,13.0,0.0,0.0,0.0,0.0,26.3,113.48845007332932,3.118900487956549
tetradecyl octadec-9-enoate,CCCCCCCCCCCCCCOC(=O)CCCCCCC\C=C/CCCCCCCC,-6.9812258596,G1,11.268199999999988,151.4889999999998,2.0,0.0,2.0,28.0,0.0,0.0,0.0,0.0,26.3,214.63792087149088,3.1923920805891446
"2-(2H-1,2,3-benzotriazol-2-yl)-4,6-bis(2-phenylpropan-2-yl)phenol",CC(C)(c1ccccc1)c2cc(n3nc4ccccc4n3)c(O)c(c2)C(C)(C)c5ccccc5,-7.0488126213,G3,6.777900000000007,137.6697999999999,4.0,1.0,4.0,5.0,5.0,0.0,0.0,5.0,50.94,200.063571714312,1.776607780031092
"4,4',4''-butane-1,1,3-triyltris(2-tert-butyl-5-methylphenol)",CC(CC(c1cc(c(O)cc1C)C(C)(C)C)c2cc(c(O)cc2C)C(C)(C)C)c3cc(c(O)cc3C)C(C)(C)C,-7.1341930505,G1,9.946859999999996,169.5063999999996,3.0,3.0,3.0,5.0,3.0,0.0,0.0,3.0,60.69,242.8621929617487,2.297072473423474
"4-[(E)-2-(5-cyano-2-hydroxy-1,4-dimethyl-6-oxo-1,6-dihydropyridin-3-yl)diazen-1-yl]-N-(2-ethylhexyl)benzamide",CCCCC(CC)CNC(=O)c1ccc(N\N=C2\C(=C(C#N)C(=O)N(C)C2=O)C)cc1,-7.0248108563,G1,3.239380000000001,119.22890000000004,6.0,2.0,8.0,9.0,1.0,0.0,1.0,2.0,114.66,182.5421474036404,2.0464969518807967
"5-[(E)-2-(3,4-dichlorophenyl)diazen-1-yl]-6-hydroxy-1,4-dimethyl-2-oxo-1,2-dihydropyridine-3-carbonitrile",CN1C(=O)C(=N/Nc2ccc(Cl)c(Cl)c2)/C(=C(C#N)C1=O)C,-6.9257837823,G1,2.5999800000000004,83.60970000000002,5.0,1.0,8.0,2.0,1.0,0.0,1.0,2.0,85.56,136.15281654418246,2.3908503104292658
2-benzoyl-5-[3-(4-benzoyl-3-hydroxyphenoxy)-2-hydroxypropoxy]phenol,OC(COc1ccc(c(O)c1)C(=O)c2ccccc2)COc3ccc(c(O)c3)C(=O)c4ccccc4,-7.1387547034,G1,4.378500000000003,132.95939999999996,7.0,3.0,7.0,10.0,4.0,0.0,0.0,4.0,113.29,207.3602322253614,1.298863700518996
"(E)-N,6,6-trimethyl-N-(naphthalen-1-ylmethyl)hept-2-en-4-yn-1-amine",CN(C\C=C\C#CC(C)(C)C)Cc1cccc2ccccc12,-4.4645461779,G1,4.877300000000004,96.65300000000006,1.0,0.0,1.0,4.0,2.0,0.0,0.0,2.0,3.24,134.19688693947325,1.9777134332849184
2-methyl-2-[(2-methylundecan-2-yl)disulfanyl]undecane,CCCCCCCCCC(C)(C)SSC(C)(C)CCCCCCCCC,-7.1279660508000005,G2,10.206399999999997,128.56000000000012,2.0,0.0,2.0,19.0,0.0,0.0,0.0,0.0,0.0,174.77910179603168,3.722993690830275
bis(2-ethylhexyl) carbonate,CCCCC(CC)COC(=O)OCC(CC)CCCC,-6.979936668500001,G1,5.572400000000006,83.91200000000008,3.0,0.0,3.0,12.0,0.0,0.0,0.0,0.0,35.53,124.9669374172328,3.795028667501342
dibenzyl {[bis(benzyloxy)phosphoryl]oxy}phosphonate,O=[P](OCc1ccccc1)(OCc2ccccc2)O[P](=O)(OCc3ccccc3)OCc4ccccc4,-7.2540426772,G1,8.086400000000006,141.22199999999984,7.0,0.0,9.0,14.0,4.0,0.0,0.0,4.0,80.29,216.72940169176,1.5413262886669157
4-(4-{2-[4-(4-aminophenoxy)phenyl]propan-2-yl}phenoxy)aniline,CC(C)(c1ccc(Oc2ccc(N)cc2)cc1)c3ccc(Oc4ccc(N)cc4)cc3,-7.191727219600001,G1,6.761500000000004,126.86880000000002,4.0,2.0,4.0,6.0,4.0,0.0,0.0,4.0,70.5,182.6043839339181,1.464476039053347
(benzoyloxy)(hydroxy)alumanyl octadecanoate,CCCCCCCCCCCCCCCCCC(=O)O[Al](O)OC(=O)c1ccccc1,-7.253899897899999,G1,6.625300000000007,125.46830000000004,5.0,1.0,6.0,19.0,1.0,0.0,0.0,1.0,72.83000000000001,193.4712982277308,1.8827583070217115
"3-(Diethylamino)-7-oxo-7H-(1)benzopyrano(3',2':3,4)pyrido(1,2-a)benzimidazole-6-carbonitrile",CCN(CC)c1ccc2C=C3C(=C(C#N)C(=O)n4c5ccccc5nc34)Oc2c1,-7.2023327624,G1,4.464980000000003,114.52200000000002,6.0,0.0,6.0,3.0,5.0,0.0,0.0,5.0,74.54,165.7576679385694,1.9343709505272828
"N-{2-[(E)-2-(2,6-dicyano-4-methylphenyl)diazen-1-yl]-5-(diethylamino)phenyl}methanesulfonamide",CCN(CC)c1ccc(N=Nc2c(cc(C)cc2C#N)C#N)c(N[S](C)(=O)=O)c1,-7.2331050936,G1,4.371480000000004,113.25450000000004,7.0,1.0,9.0,7.0,2.0,0.0,0.0,2.0,121.70999999999998,170.71044319438687,2.581224188198245
2-[[4-[(2-cyano-3-nitrophenyl)azo]-m-tolyl](2-acetoxyethyl)amino]ethyl acetate,CC(=O)OCCN(CCOC(C)=O)c1ccc(cc1)N=Nc2ccc(cc2C#N)[N+]([O-])=O,-7.300465045499999,G1,3.8144800000000014,113.90840000000006,10.0,0.0,11.0,10.0,2.0,0.0,0.0,2.0,147.48999999999998,183.5752779328928,2.125292797781904
"1-bromo-1,1,2,2,3,3,4,4,5,5,6,6,7,7,8,8,8-heptadecafluorooctane",FC(F)(F)C(F)(F)C(F)(F)C(F)(F)C(F)(F)C(F)(F)C(F)(F)C(F)(F)Br,-7.3970339946,G1,6.348200000000002,49.611,0.0,0.0,18.0,6.0,0.0,0.0,0.0,0.0,0.0,137.97549528399315,6.612913906399524