Name,SMILES,Solubility,Group,MolLogP,MolMR,NumHAcceptors,NumHDonors,NumHeteroatoms,NumRotatableBonds,NumAromaticRings,NumSaturatedRings,NumAliphaticRings,RingCount,TPSA,LabuteASA,BalabanJ
"triethylene glycol, dinitrate",[O-][N+](=O)OCCOCCOCCO[N+]([O-])=O,-1.561,G1,-0.5638000000000001,47.53080000000003,8.0,0.0,10.0,11.0,0.0,0.0,0.0,0.0,123.20000000000002,90.23217096179565,2.9847083013580864
diethylenetriamine,NCCNCCN,0.9864,G1,-1.506599999999999,30.9785,3.0,3.0,3.0,4.0,0.0,0.0,0.0,0.0,64.07,44.06372094865284,2.447472887876344
diethylene glycol monomethyl ether,COCCOCCO,0.9203,G1,-0.3583,29.780799999999985,3.0,1.0,3.0,5.0,0.0,0.0,0.0,0.0,38.69,49.22034369662575,2.53006045688352
n-nonane,CCCCCCCCC,-5.7657,G3,3.7569000000000026,43.667000000000016,0.0,0.0,0.0,6.0,0.0,0.0,0.0,0.0,0.0,59.658787943002416,2.595082706793886
diethylene glycol monoethyl ether,CCOCCOCCO,0.8723,G1,0.0317999999999998,34.39779999999999,3.0,1.0,3.0,6.0,0.0,0.0,0.0,0.0,38.69,55.58528581102235,2.595082706793886
bis(2-chloroethoxy)methane,ClCCOCOCCCl,-1.3461,G3,1.4547,38.211000000000006,2.0,0.0,4.0,6.0,0.0,0.0,0.0,0.0,18.46,65.03264239819308,2.595082706793886
2-butoxyethanol acetate,CCCCOCCOC(C)=O,-1.2504,G1,1.3662,42.360000000000014,3.0,0.0,3.0,6.0,0.0,0.0,0.0,0.0,35.53,67.68245838766332,2.8497612822334424
"1,2-bis(2-chloroethoxy)ethane",ClCCOCCOCCCl,-0.9955,G1,1.4972,43.07800000000002,2.0,0.0,4.0,7.0,0.0,0.0,0.0,0.0,18.46,71.39758451258969,2.6476048489438337
diethylene glycol mono-n-butyl ether,CCCCOCCOCCO,0.7899,G1,0.812,43.63180000000001,3.0,1.0,3.0,8.0,0.0,0.0,0.0,0.0,38.69,68.31517003981556,2.6909155266923976
methoxy triethylene glycol,COCCOCCOCCO,0.7846,G1,-0.3417,40.59980000000001,4.0,1.0,4.0,8.0,0.0,0.0,0.0,0.0,47.92,67.06377315492584,2.6909155266923976
bis (2-ethoxy ethyl)  ether,CCOCCOCCOCC,0.7899,G1,1.076,43.80500000000002,3.0,0.0,3.0,8.0,0.0,0.0,0.0,0.0,27.69,68.63448151712643,2.6909155266923976
ethoxytriethylene glycol,CCOCCOCCOCCO,0.7490000000000001,G1,0.0483999999999998,45.21680000000002,4.0,1.0,4.0,9.0,0.0,0.0,0.0,0.0,47.92,73.42871526932245,2.72724281291869
"ethanol, 2- 2-(hexyloxy)ethoxy -",CCCCCCOCCOCCO,-1.0490000000000002,G1,1.5922,52.86580000000004,3.0,1.0,3.0,10.0,0.0,0.0,0.0,0.0,38.69,81.04505426860878,2.758149818433293
eicosane,CCCCCCCCCCCCCCCCCCCC,-8.1724,G1,8.048000000000007,94.4540000000001,0.0,0.0,0.0,17.0,0.0,0.0,0.0,0.0,0.0,129.67315120136516,2.8896766777949185
propoxur,CNC(=O)Oc1ccccc1OC(C)C,-2.0512,G1,2.192,57.28970000000004,3.0,1.0,4.0,3.0,1.0,0.0,0.0,1.0,47.56,89.19458843414556,2.809453207323335
dimefox,CN(C)[P](F)(=O)N(C)C,0.8121,G1,1.1872,36.0885,1.0,0.0,5.0,2.0,0.0,0.0,0.0,0.0,23.550000000000004,55.04363954672382,4.208996984237657
chlorendic acid,OC(=O)C1C(C(O)=O)C2(Cl)C(=C(Cl)C1(Cl)C2(Cl)Cl)Cl,-2.0457,G1,3.2335000000000003,72.58860000000003,2.0,2.0,10.0,2.0,0.0,1.0,2.0,2.0,74.6,136.68863166952926,2.8385185499997143
2-amino-2-methylpropanediol,CC(N)(CO)CO,0.9782,G1,-1.3116,26.764,3.0,3.0,3.0,2.0,0.0,0.0,0.0,0.0,66.48,42.7624355724241,3.3604351426960584
"2,2-diethyl-1,3-propanediol",CCC(CC)(CO)CO,0.1798,G1,0.7773999999999999,37.18659999999999,2.0,2.0,2.0,4.0,0.0,0.0,0.0,0.0,40.46,56.51737121860122,3.824684203207495
octyldiphenyl phosphate,CCCCCCCCO[P](=O)(Oc1ccccc1)Oc2ccccc2,-6.4131,G1,6.629600000000007,101.07450000000006,4.0,0.0,5.0,12.0,2.0,0.0,0.0,2.0,44.760000000000005,150.29828060372955,1.9078310024202128
diphenylmethyl phosphate,CO[P](=O)(Oc1ccccc1)Oc2ccccc2,-2.1209,G1,3.898900000000002,68.75550000000004,4.0,0.0,5.0,5.0,2.0,0.0,0.0,2.0,44.760000000000005,105.74368580295334,2.1376638619969057
tri-2-chloroethyl phosphate,ClCCO[P](=O)(OCCCl)OCCCl,-1.6105,G3,2.8607000000000014,57.62250000000002,4.0,0.0,8.0,9.0,0.0,0.0,0.0,0.0,44.760000000000005,98.36400664345334,3.965945885084293
ethoate methyl,CCNC(=O)CS[P](=S)(OC)OC,-1.4567,G1,1.373,59.44470000000003,5.0,1.0,7.0,6.0,0.0,0.0,0.0,0.0,47.56,87.66738883604764,3.85745365114857
aldicarb,CNC(=O)O\N=C\C(C)(C)SC,-1.4991,G3,1.4698,51.62670000000003,4.0,1.0,5.0,3.0,0.0,0.0,0.0,0.0,50.69,76.72630423807122,3.8317472942012736
hydroxyacetone,CC(=O)CO,1.1303,G1,-0.4322999999999999,17.7668,2.0,1.0,2.0,1.0,0.0,0.0,0.0,0.0,37.3,30.42489110886254,2.847378923087672
isopropenyl methyl ether,COC(C)=C,1.142,G1,1.1664,21.822999999999997,1.0,0.0,1.0,1.0,0.0,0.0,0.0,0.0,9.23,32.258019568342,2.847378923087672
tetrafluoroethylene,FC(F)=C(F)F,-2.8001,G1,1.991,11.458000000000002,0.0,0.0,4.0,0.0,0.0,0.0,0.0,0.0,0.0,31.07673172174684,3.675948764555208
"1-(hydroxymethyl)-5,5-dimethylhydantoin",CC1(C)N(CO)C(=O)NC1=O,0.8009,G1,-0.7334,36.5425,3.0,2.0,5.0,1.0,0.0,1.0,1.0,1.0,69.64,63.98510425237831,2.9323631493301465
tetradifon,Clc1ccc(cc1)[S](=O)(=O)c2cc(Cl)c(Cl)cc2Cl,-6.6594,G1,5.133000000000001,78.37580000000001,2.0,0.0,7.0,2.0,2.0,0.0,0.0,2.0,34.14,130.32696061487425,2.6298309324423976
1-amino-4-hydroxyanthraquinone,Nc1ccc(O)c2C(=O)c3ccccc3C(=O)c12,-3.824,G1,1.7498,65.82620000000001,4.0,2.0,4.0,0.0,2.0,0.0,1.0,3.0,80.39,102.66971905012124,2.4094150669454457
"1,5-anthraquinonedisulfonic acid",O[S](=O)(=O)c1cccc2C(=O)c3c(cccc3[S](O)(=O)=O)C(=O)c12,0.2572,G1,0.9554000000000002,79.37820000000005,6.0,2.0,10.0,2.0,2.0,0.0,1.0,3.0,142.88,135.79286662099378,2.4389762983347767
2-aminoanthraquinone,Nc1ccc2C(=O)c3ccccc3C(=O)c2c1,-6.1366,G1,2.0442,64.16140000000001,3.0,1.0,3.0,0.0,2.0,0.0,1.0,3.0,60.16,97.87548529792522,2.3304909398632216
bis(methoxyethyl)phthalate,COCCOC(=O)c1ccccc1C(=O)OCCOC,-1.5213,G1,1.293,70.75900000000004,6.0,0.0,6.0,8.0,1.0,0.0,0.0,1.0,71.06,117.12816515278492,2.7123913375014235
dioctyl phthalate,CCCCCCCCOC(=O)c1ccccc1C(=O)OCCCCCCCC,-7.2493,G2,6.721200000000008,113.75900000000009,4.0,0.0,4.0,16.0,1.0,0.0,0.0,1.0,52.60000000000001,170.55049583773726,2.349722997694081
hydrastine,COc1ccc2C(OC(=O)c2c1OC)C3N(C)CCc4cc5OCOc5cc34,-4.1065,G1,2.873200000000001,99.34250000000004,7.0,0.0,7.0,3.0,2.0,0.0,3.0,5.0,66.46000000000001,162.24456481232437,1.633963267268561
"1-naphthalenamine, n-ethyl-",CCNc1cccc2ccccc12,-3.1922,G1,3.271600000000001,58.11170000000003,1.0,1.0,1.0,2.0,2.0,0.0,0.0,2.0,12.03,78.39281406363344,2.6138711904545664
"1,3-dichloro-5,5-dimethylhydantoin",CC1(C)N(Cl)C(=O)N(Cl)C1=O,-2.5955,G1,1.3368,39.86600000000001,2.0,0.0,6.0,0.0,0.0,1.0,1.0,1.0,40.620000000000005,73.86577399125042,3.0578545444003207
4-chloro-1-nitro-2(trifluoromethyl)benzene,[O-][N+](=O)c1ccc(Cl)cc1C(F)(F)F,-3.3533,G3,3.2670000000000003,43.1084,2.0,0.0,7.0,1.0,1.0,0.0,0.0,1.0,43.14,81.24919339205375,3.3771158134046155
pyridaphenthion,CCO[P](=S)(OCC)OC1=NN(C(=O)C=C1)c2ccccc2,-3.5319,G1,2.908800000000001,87.99900000000002,7.0,0.0,8.0,7.0,2.0,0.0,0.0,2.0,62.58,133.44807269181788,2.3361423655169005
"p-(2,4-dinitroaniline)phenol",Oc1ccc(Nc2ccc(cc2[N+]([O-])=O)[N+]([O-])=O)cc1,-5.444,G1,2.9522000000000004,71.1403,6.0,2.0,8.0,4.0,2.0,0.0,0.0,2.0,118.54000000000002,112.13854470636464,2.378017974613423
"2-naphthalenesulfonic acid, 4-hydroxy-6-(phenyla",Oc1cc(cc2ccc(Nc3ccccc3)cc12)[S](O)(=O)=O,-1.9763,G1,3.535700000000002,85.15210000000003,4.0,3.0,6.0,3.0,3.0,0.0,0.0,3.0,86.63,127.1428938031409,2.0556376875946096
isolan,CC(C)n1nc(C)cc1OC(=O)N(C)C,0.6752,G1,1.83282,57.06000000000004,4.0,0.0,5.0,2.0,1.0,0.0,0.0,1.0,47.36000000000001,89.6281323769881,2.888552175902328
bis (2-hydroxy-3tert-butyl-5-methylphenyl) metha,Cc1cc(Cc2cc(C)cc(c2O)C(C)(C)C)c(O)c(c1)C(C)(C)C,-7.2311,G4,5.900440000000006,105.89360000000006,2.0,2.0,2.0,2.0,2.0,0.0,0.0,2.0,40.46,152.09132808831575,2.5841516969341103
dimorpholamine,CCCCN(CCN(CCCC)C(=O)N1CCOCC1)C(=O)N2CCOCC2,0.0985,G1,2.095000000000001,108.53800000000008,4.0,0.0,8.0,9.0,0.0,2.0,2.0,2.0,65.56,169.25095823422146,1.954914838775001
"benzenemethanol, 4-chloro-.alpha.-phenyl-",OC(c1ccccc1)c2ccc(Cl)cc2,-3.4886,G1,3.421700000000002,61.95580000000003,1.0,1.0,2.0,2.0,2.0,0.0,0.0,2.0,20.23,93.95093941903528,2.285395295562661
"benzoic acid, 2-(methylamino)-",CNc1ccccc1C(O)=O,-2.8784,G1,1.4265,42.948000000000015,2.0,2.0,3.0,2.0,1.0,0.0,0.0,1.0,49.33,64.66690538413799,3.121219318886157
bianisidine,Cc1cc(ccc1N)c2ccc(N)c(C)c2,-2.213,G1,3.1348400000000014,70.17680000000001,2.0,2.0,2.0,1.0,2.0,0.0,0.0,2.0,52.04,95.89816294837964,2.5020803743746223
"benzaldehyde, 3,4-dimethoxy-",COc1ccc(C=O)cc1OC,-1.4199,G3,1.5162999999999998,44.93350000000002,3.0,0.0,3.0,3.0,1.0,0.0,0.0,1.0,35.53,70.9148420217443,3.097737020758659
"benzaldehyde, 4-ethoxy-3-methoxy-",CCOc1ccc(C=O)cc1OC,-2.1913,G1,1.9064,49.55050000000003,3.0,0.0,3.0,4.0,1.0,0.0,0.0,1.0,35.53,77.2797841361409,2.998837782975782
5-chloro-2-hydroxydiphenylmethane,Oc1ccc(Cl)cc1Cc2ccccc2,-3.1666,G1,3.6364000000000023,62.36480000000003,1.0,1.0,2.0,2.0,2.0,0.0,0.0,2.0,20.23,93.95093941903532,2.28073295107281
1h-purine,[nH]1cnc2ncncc12,0.6194,G1,0.3529,31.6837,3.0,1.0,4.0,0.0,2.0,0.0,0.0,2.0,54.46,50.981172015086,2.954659790285104
"2,2'-dithiobisbenzothiazole",S(Sc1sc2ccccc2n1)c3sc4ccccc4n3,-4.5218,G4,5.705400000000002,90.954,6.0,0.0,6.0,3.0,4.0,0.0,0.0,4.0,25.78,131.21803102882754,1.5677796561680746
pyrethrin i,CC(C)=C[C@@H]1[C@@H](C(=O)O[C@H]2CC(=O)C(=C2C)C\C=C/C=C)C1(C)C,-6.2155,G1,4.558200000000005,96.35000000000004,3.0,0.0,3.0,6.0,0.0,1.0,2.0,2.0,43.370000000000005,144.70460830956063,2.05187472566039
pyrethrin ii,COC(=O)C(/C)=C/[C@@H]1[C@@H](C(=O)O[C@H]2CC(=O)C(=C2C)C\C=C/C=C)C1(C)C,-4.6168,G1,3.711300000000003,102.69200000000006,5.0,0.0,5.0,7.0,0.0,1.0,2.0,2.0,69.67000000000002,160.34461775350792,2.070106032515514
propyl gallate,CCCOC(=O)c1cc(O)c(O)c(O)c1,-1.7827,G1,1.3702,52.00990000000003,5.0,3.0,5.0,3.0,1.0,0.0,0.0,1.0,86.99000000000001,86.54894016322208,2.908546519248324
"1,3,5,-trinitrohexahydro-1,3,5-triazine",[O-][N+](=O)N1CN(CN(C1)[N+]([O-])=O)[N+]([O-])=O,-3.5706,G5,-1.6463999999999996,41.10120000000002,6.0,0.0,12.0,3.0,0.0,1.0,1.0,1.0,139.14,81.61214034190796,2.7681908301661284
dimetan,CN(C)C(=O)OC1=CC(=O)CC(C)(C)C1,-0.8477,G1,1.9576,56.27300000000003,3.0,0.0,4.0,1.0,0.0,0.0,1.0,1.0,46.61,89.88966108587992,2.705885156094803
hydrazobenzene,N(Nc1ccccc1)c2ccccc2,-2.9210000000000003,G1,3.1256000000000013,60.129400000000025,2.0,2.0,2.0,3.0,2.0,0.0,0.0,2.0,24.06,83.55835771301207,1.957475895987533
2-anilinoethanol,OCCNc1ccccc1,-0.4745,G3,1.0908,42.01750000000002,2.0,2.0,2.0,3.0,1.0,0.0,0.0,1.0,32.26,60.50538328409423,2.4265223465879537
succinyl peroxide,OC(=O)CCC(=O)OOC(=O)CCC(O)=O,-0.8471,G1,-0.2826000000000004,45.923600000000015,6.0,2.0,8.0,6.0,0.0,0.0,0.0,0.0,127.20000000000002,89.68478750792497,3.625165652316584
ethyl nonanoate,CCCCCCCCC(=O)OCC,-3.8007,G1,3.3001000000000023,54.62600000000005,2.0,0.0,2.0,8.0,0.0,0.0,0.0,0.0,26.3,81.66373950134629,3.021081245629661
"3-methylene-7-methyl-1,6-octadiene  (myrcene)",CC(C)=CCCC(=C)C=C,-4.3861,G3,3.4750000000000023,48.00200000000003,0.0,0.0,0.0,4.0,0.0,0.0,0.0,0.0,0.0,63.954920960846245,3.4629046970868087
4-hydroxy-4-methyl-2-pentanone,CC(=O)CC(C)(C)O,0.9349,G1,0.7363999999999999,31.595799999999983,2.0,1.0,2.0,2.0,0.0,0.0,0.0,0.0,37.3,49.51971745205236,3.5512529243669317
dioctyl adipate,CCCCCCCCOC(=O)CCCCC(=O)OCCCCCCCC,-5.6768,G1,6.354200000000008,107.13800000000008,4.0,0.0,4.0,19.0,0.0,0.0,0.0,0.0,52.60000000000001,160.95317008925966,3.307768947097144
1-[(2-aminoethyl)amino]-2-propanol,CC(O)CNCCN,0.9275,G1,-1.0844999999999994,33.60489999999999,3.0,3.0,3.0,4.0,0.0,0.0,0.0,0.0,58.28,49.88300611823274,2.715842761293259
isoamyl acetate,CC(C)CCOC(C)=O,-1.8135,G3,1.5956,36.088,2.0,0.0,2.0,3.0,0.0,0.0,0.0,0.0,26.3,56.20397104375984,3.006105030052141
"acetic acid, 2,2'-thiobis-",OC(=O)CSCC(O)=O,0.4255,G1,-0.1112,32.596599999999995,3.0,2.0,5.0,4.0,0.0,0.0,0.0,0.0,74.6,55.86869910086416,3.1028259423155773
octanal,CCCCCCCC=O,-2.3598,G1,2.5458000000000007,39.440000000000005,1.0,0.0,1.0,6.0,0.0,0.0,0.0,0.0,17.07,57.45536792864957,2.663883887398184
diethylene glycol monobutyl ether acetate,CCCCOCCOCCOC(C)=O,-0.8188,G3,1.3828,53.179000000000045,4.0,0.0,4.0,9.0,0.0,0.0,0.0,0.0,44.760000000000005,85.52588784596342,2.884064614706359
n-decane,CCCCCCCCCC,-6.4372,G1,4.147000000000004,48.28400000000003,0.0,0.0,0.0,7.0,0.0,0.0,0.0,0.0,0.0,66.02373005739904,2.6476048489438337
n-dodecylamine,CCCCCCCCCCCCN,-3.3759,G4,3.8660000000000014,60.89840000000005,1.0,1.0,1.0,10.0,0.0,0.0,0.0,0.0,26.02,84.09350498320498,2.758149818433293
methane arsonate,C[As](O)(O)=O,0.2622,G1,-1.0298,16.7421,1.0,2.0,4.0,0.0,0.0,0.0,0.0,0.0,57.53,32.62405180488636,3.472066495600119
tetrakis(hydroxymethyl)phosphonium chloride,[Cl-].OC[P+](CO)(CO)CO,0.322,G1,-4.1927999999999965,35.26319999999999,4.0,4.0,6.0,4.0,0.0,0.0,0.0,0.0,80.92,66.24868609272194,0.0
2-amino-2-methyl-1-propanol,CC(C)(N)CO,1.0499,G1,-0.2840000000000001,25.3522,2.0,2.0,2.0,1.0,0.0,0.0,0.0,0.0,46.25,37.9682018202281,3.1684898726705697
"1,2-dibromotetrafluoroethane",FC(F)(Br)C(F)(F)Br,-4.9376,G1,2.9618,27.748,0.0,0.0,6.0,1.0,0.0,0.0,0.0,0.0,0.0,59.501429965213816,4.020391543176799
camphoric acid,CC1(C)[C@H](CC[C@@]1(C)C([O-])=O)C([O-])=O,-1.4207,G1,-1.071299999999999,44.62600000000002,4.0,0.0,4.0,2.0,0.0,1.0,1.0,1.0,80.25999999999999,82.92941060834937,3.0816750060746867
"cyclohexanol, 1-ethynyl-, carbamate",NC(=O)OC1(CCCCC1)C#C,-1.8253,G1,1.4178,45.31740000000002,2.0,1.0,3.0,1.0,0.0,1.0,1.0,1.0,52.32000000000001,72.26714020789582,2.6146255050426754
dipentaerythritol,OCC(CO)(CO)COCC(CO)(CO)CO,-1.9582,G3,-3.070399999999999,58.199800000000046,7.0,6.0,7.0,10.0,0.0,0.0,0.0,0.0,130.61,99.90267780008196,4.276302630183746
demeton-s,CCO[P](=O)(OCC)SCCSCC,-2.1112,G1,3.653800000000002,66.31550000000004,5.0,0.0,6.0,9.0,0.0,0.0,0.0,0.0,35.53,94.9786813778164,3.7767972529836142
"5,5-dimethyl-1,3-cyclohexanedione",CC1(C)CC(=O)CC(=O)C1,-1.5276,G1,1.3347,37.646,2.0,0.0,2.0,0.0,0.0,1.0,1.0,1.0,34.14,60.611058875164105,2.68468675394851
oxanamide,CCCC1OC1(CC)C(N)=O,-1.1745,G1,0.8193999999999999,41.9974,2.0,1.0,3.0,4.0,0.0,1.0,1.0,1.0,55.62,66.90297270163992,2.494019373924044
hydroxyurea,NC(=O)NO,1.1189,G1,-0.9561000000000002,14.5056,2.0,3.0,4.0,0.0,0.0,0.0,0.0,0.0,75.35000000000001,28.538798260168065,2.847378923087672
pyruvic acid,CC(=O)C(O)=O,1.0552,G1,-0.3399999999999999,18.3168,2.0,1.0,3.0,1.0,0.0,0.0,0.0,0.0,54.37,34.58641320890631,3.5677034550432034
trimethadione,CN1C(=O)OC(C)(C)C1=O,-0.4568,G1,0.3735999999999999,33.32999999999999,3.0,0.0,4.0,0.0,0.0,1.0,1.0,1.0,46.61,58.75455354608113,2.920820853904207
"benzamide, n- (4-aminophenyl)sulfonyl -",Nc1ccc(cc1)[S](=O)(=O)NC(=O)c2ccccc2,-2.9501,G1,1.3875,71.94840000000002,4.0,2.0,6.0,3.0,2.0,0.0,0.0,2.0,89.25999999999999,110.66549031303724,2.2268919853722347
silver lactate,[Ag+].CC([O-])C(O)=O,-0.4702,G1,-1.1827,17.097800000000003,2.0,1.0,4.0,1.0,0.0,0.0,0.0,0.0,60.36,56.85252771435221,0.0
"2,5-pyrrolidinedione, 1-bromo-",BrN1C(=O)CCC1=O,-1.0831,G1,0.4453,30.014,2.0,0.0,4.0,0.0,0.0,1.0,1.0,1.0,37.38,54.988814491065135,2.7003421243315966
"1-chloro-2,5-pyrrolidinedione",ClN1C(=O)CCC1=O,-0.9702,G1,0.2892,26.93999999999999,2.0,0.0,4.0,0.0,0.0,1.0,1.0,1.0,37.38,51.32606114721573,2.7003421243315966
ursodeoxycholic acid,C[C@H](CCC(O)=O)[C@H]1CC[C@H]2[C@@H]3[C@@H](O)C[C@@H]4C[C@H](O)CC[C@]4(C)[C@H]3CC[C@]12C,-4.2929,G1,4.477900000000004,108.64740000000008,3.0,3.0,4.0,4.0,0.0,4.0,4.0,4.0,77.76,169.65381840146642,1.5548220176091474
noscapine,COc1ccc2[C@H](OC(=O)c2c1OC)[C@@H]3N(C)CCc4cc5OCOc5c(OC)c34,-3.1393,G1,2.881800000000001,105.89450000000004,8.0,0.0,8.0,4.0,2.0,0.0,3.0,5.0,75.69000000000001,173.72305215622788,1.685229023858012
1-hydroxyanthraquinone,Oc1cccc2C(=O)c3ccccc3C(=O)c12,-4.4213,G1,2.1676,61.413800000000016,3.0,1.0,3.0,0.0,2.0,0.0,1.0,3.0,54.37,97.32982835310852,2.374093930060625
"2,4,6-trinitrobenzoic acid",OC(=O)c1c(cc(cc1[N+]([O-])=O)[N+]([O-])=O)[N+]([O-])=O,-1.0977,G1,1.1094000000000002,53.36449999999999,7.0,1.0,11.0,4.0,1.0,0.0,0.0,1.0,166.72,96.71102825363272,3.7641788837453354
"8-quinolinol,5-chloro-",Oc1ccc(Cl)c2cccnc12,-3.9756,G1,2.5938000000000008,48.41780000000001,2.0,1.0,3.0,0.0,2.0,0.0,0.0,2.0,33.120000000000005,74.43021561125636,2.946471324842402
"2-cyclohexyl-4,6-dinitrophenol",Oc1c(cc(cc1[N+]([O-])=O)[N+]([O-])=O)C2CCCCC2,-4.2492,G1,3.256300000000002,67.24160000000003,5.0,1.0,7.0,3.0,1.0,1.0,1.0,2.0,106.51,108.715409849543,2.507758804021516
2-phenylcinchoninic acid,OC(=O)c1cc(nc2ccccc12)c3ccccc3,-3.1926,G1,3.6000000000000014,74.13830000000003,2.0,1.0,3.0,2.0,3.0,0.0,0.0,3.0,50.19,109.71050780487911,2.309670859666423
npa (naptalam),OC(=O)c1ccccc1C(=O)Nc2cccc3ccccc23,-3.1633,G1,3.790300000000002,85.30250000000004,2.0,2.0,4.0,3.0,3.0,0.0,0.0,3.0,66.39999999999999,126.56718622198102,1.9924860950657608
"naphthalene-1,3-diol",Oc1cc(O)c2ccccc2c1,-1.9493,G1,2.2509999999999994,47.27760000000003,2.0,2.0,2.0,0.0,2.0,0.0,0.0,2.0,40.46,69.7015351556242,2.892065045173516
captan,ClC(Cl)(Cl)SN1C(=O)C2CC=CCC2C1=O,-4.7704,G1,2.913500000000001,65.08800000000001,3.0,0.0,7.0,1.0,0.0,1.0,2.0,2.0,37.38,112.20868669068936,2.179857528512065
folpet,ClC(Cl)(Cl)SN1C(=O)c2ccccc2C1=O,-5.569,G1,3.258500000000001,64.82300000000001,3.0,0.0,7.0,1.0,1.0,0.0,1.0,2.0,37.38,110.77156239608723,2.356719300888469
3-indolebutyric acid,OC(=O)CCCc1c[nH]c2ccccc12,-2.9101,G1,2.5752000000000006,58.87250000000002,1.0,2.0,3.0,4.0,2.0,0.0,0.0,2.0,53.09,87.73775238207269,2.110577413682845
"phenol, 2,4-dichloro-3,5-dimethyl-",Cc1cc(O)c(Cl)c(C)c1Cl,-2.9801,G1,3.315840000000001,47.60080000000002,1.0,1.0,3.0,0.0,1.0,0.0,0.0,1.0,20.23,75.56205355424953,3.455546483817784
"3,5-diiodosalicylic acid",OC(=O)c1cc(I)cc(I)c1O,-3.307,G1,2.2996000000000003,60.5001,2.0,2.0,5.0,1.0,1.0,0.0,0.0,1.0,57.53,96.07001108041663,3.3738590108748685
"benzoic acid, 2-(acetyloxy)-, phenyl ester",CC(=O)Oc1ccccc1C(=O)Oc2ccccc2,-4.1077,G1,2.831100000000001,69.15150000000004,4.0,0.0,4.0,3.0,2.0,0.0,0.0,2.0,52.60000000000001,110.13345832785213,2.214823158107694
4-amino-4'-chlorodiphenyl,Nc1ccc(cc1)c2ccc(Cl)cc2,-4.6383,G1,3.5892000000000017,61.30040000000002,1.0,1.0,2.0,1.0,2.0,0.0,0.0,2.0,26.02,88.13165424945538,2.396509039726096
"1,3-diphenyl-1-triazene",N(N=Nc1ccccc1)c2ccccc2,-2.596,G1,3.7974000000000014,61.02270000000004,2.0,1.0,3.0,3.0,2.0,0.0,0.0,2.0,36.75,88.4552733738931,1.968643821266043
"benzenamine, 2-ethoxy-5-nitro-",CCOc1ccc(cc1N)[N+]([O-])=O,-3.2113,G1,1.5757,48.67780000000001,4.0,1.0,5.0,3.0,1.0,0.0,0.0,1.0,78.38999999999999,75.26769899730957,2.9807441303986697
"2,4,5-trimethylaniline",Cc1cc(C)c(N)cc1C,-1.9549,G1,2.1940600000000003,45.06540000000002,1.0,1.0,1.0,0.0,1.0,0.0,0.0,1.0,26.02,61.86612015969951,3.2824629074535228
glutamic acid hydrochloride,[H+].[Cl-].NC(CCC(O)=O)C(O)=O,0.3159,G1,-3.620399999999997,33.593,3.0,3.0,6.0,4.0,0.0,0.0,0.0,0.0,100.62,71.0883135089532,-4.049999518500058e-07
butyl lactate,CCCCOC(=O)C(C)O,-0.5629,G1,0.7104999999999999,37.5478,3.0,1.0,3.0,4.0,0.0,0.0,0.0,0.0,46.53,60.99820479595584,3.222476034247819
"benzenesulfonic acid, 3-hydrazino-",NNc1cccc(c1)[S](O)(=O)=O,-0.8275,G1,0.2189,44.0667,4.0,3.0,6.0,2.0,1.0,0.0,0.0,1.0,92.42,69.91992803039331,3.198565992295085
"benzenesulfonamide, 4-(aminomethyl)-",NCc1ccc(cc1)[S](N)(=O)=O,0.321,G1,-0.2072999999999999,45.70660000000001,3.0,2.0,5.0,2.0,1.0,0.0,0.0,1.0,86.18,71.23690252033408,3.090461034734354
salicin,OC[C@H]1O[C@@H](Oc2ccccc2CO)[C@H](O)[C@@H](O)[C@@H]1O,-0.8547,G1,-1.6424000000000003,66.76000000000003,7.0,5.0,7.0,4.0,1.0,1.0,1.0,2.0,119.61,115.17842598673782,2.1504764393251574
nitrilotriacetic acid,OC(=O)CN(CC(O)=O)CC(O)=O,-0.5101,G2,-1.457799999999999,39.3474,4.0,3.0,7.0,6.0,0.0,0.0,0.0,0.0,115.14,73.19106282673529,4.095996370610992
"3,4-dihydroxybenzaldehyde",Oc1ccc(C=O)cc1O,-1.3402,G3,0.9103,35.1591,3.0,2.0,3.0,1.0,1.0,0.0,0.0,1.0,57.53,57.54633483832936,3.158901732156222
"2-thiophenepropanoic acid, .alpha.-amino-",NC(Cc1sccc1)C(O)=O,-0.8356,G1,0.7024999999999999,43.634200000000014,3.0,2.0,4.0,3.0,1.0,0.0,0.0,1.0,63.32,68.46223928235078,2.4987607772382447
"ethanol, 2,2'-(ethylimino)bis-",CC[NH+](CCO)CCO,0.8755,G1,-2.1241999999999983,35.40929999999999,2.0,3.0,3.0,5.0,0.0,0.0,0.0,0.0,44.900000000000006,55.91226277440798,3.175341082395833
furaltadone,[O-][N+](=O)c1oc(cc1)/C=N/N2CC(CN3CCOCC3)OC2=O,-2.6359,G1,0.6747000000000001,77.19040000000004,8.0,0.0,10.0,5.0,1.0,2.0,2.0,3.0,110.65,130.92526323414398,1.5414337097331927