Name,SMILES,Solubility,Group,MolLogP,MolMR,NumHAcceptors,NumHDonors,NumHeteroatoms,NumRotatableBonds,NumAromaticRings,NumSaturatedRings,NumAliphaticRings,RingCount,TPSA,LabuteASA,BalabanJ
"2,4,5-trichloroaniline",Nc1cc(Cl)c(Cl)cc1Cl,-3.4359504856,G1,3.229,45.88440000000001,1.0,1.0,4.0,0.0,1.0,0.0,0.0,1.0,26.02,73.6810924971547,3.2824629074535228
2-chloro-6-(trichloromethyl)pyridine,Clc1cccc(n1)C(Cl)(Cl)Cl,-3.506108364,G5,3.5617,48.484000000000016,1.0,0.0,5.0,0.0,1.0,0.0,0.0,1.0,12.89,84.22905812236678,3.059901692217984
3-hydroxynaphthalene-2-carboxylic acid,OC(=O)c1cc2ccccc2cc1O,-3.4172455835,G2,2.2436000000000003,52.57210000000003,2.0,2.0,3.0,1.0,2.0,0.0,0.0,2.0,57.53,80.22799937006457,2.7705108102676235
"(3E)-penta-1,3-diene; (3Z)-penta-1,3-diene; cyclopentene",C\C=C/C=C.C/C=C/C=C.C1CC=CC1,-2.4542650743000003,G3,5.223500000000005,73.01300000000003,0.0,0.0,0.0,2.0,0.0,0.0,1.0,1.0,0.0,95.40625662199,0.0
3-(3-propan-2-ylphenyl)butanal,CC(C)c1cccc(c1)C(C)CC=O,-3.6773468456,G1,3.502500000000002,59.627000000000045,1.0,0.0,1.0,4.0,1.0,0.0,0.0,1.0,17.07,86.14752002031699,2.870654853562165
"1,1,2,2,3,3,4-heptafluorocyclopentane",FC1CC(F)(F)C(F)(F)C1(F)F,-2.436880918,G1,2.6341,24.354,0.0,0.0,7.0,0.0,0.0,1.0,1.0,1.0,0.0,62.3519361523704,3.099777273392108
"Hydrocarbons, C5-rich",CCCCC,-3.006984006,G5,2.1965000000000003,25.19899999999999,0.0,0.0,0.0,2.0,0.0,0.0,0.0,0.0,0.0,34.19901948541599,2.19060968716425
2-methoxy-4-[(1E)-prop-1-en-1-yl]phenol,COc1cc(\C=C\C)ccc1O,-2.3647374971,G1,2.433900000000001,49.366800000000026,2.0,1.0,2.0,2.0,1.0,0.0,0.0,1.0,29.46,72.10934752660204,3.045828964705749
"3,4-dimethylbenzaldehyde",Cc1ccc(C=O)cc1C,-2.277035079,G1,2.11594,41.303500000000014,1.0,0.0,1.0,1.0,1.0,0.0,0.0,1.0,17.07,60.68775156273056,3.158901732156222
"1-phenylethan-1-aminium hydrate hydrogen [(2R,3S)-3-methyloxiran-2-yl]phosphonate",O.CC([NH3+])c1ccccc1.C[C@@H]2O[C@@H]2[P](O)([O-])=O,-0.5941393378000001,G1,-0.5583,65.51920000000003,3.0,2.0,7.0,2.0,1.0,1.0,1.0,2.0,132.03,106.24171096715386,3.059999954636236e-07
butyl acetate,CCCCOC(C)=O,-1.2199585633,G5,1.3496,31.540999999999983,2.0,0.0,2.0,3.0,0.0,0.0,0.0,0.0,26.3,49.83902892936324,2.822354554248032
"4,4'-diaminobiphenyl-2,2'-disulfonic acid",Nc1ccc(c2ccc(N)cc2[S](O)(=O)=O)c(c1)[S](O)(=O)=O,-2.6919272706,G3,1.0114,80.33200000000002,6.0,4.0,10.0,3.0,2.0,0.0,0.0,2.0,160.78,126.42555073966766,2.904291837314408
4-hydroxy-3-methoxy-5-nitrobenzaldehyde,COc1cc(C=O)cc(c1O)[N+]([O-])=O,-2.4496899299,G1,1.1214999999999995,46.70070000000001,5.0,1.0,6.0,3.0,1.0,0.0,0.0,1.0,89.66999999999999,78.88356415253662,3.410012363113564
N-[3-(diethylamino)phenyl]acetamide,CCN(CC)c1cccc(NC(C)=O)c1,-2.4693780306,G1,2.4912,64.30670000000003,2.0,1.0,3.0,4.0,1.0,0.0,0.0,1.0,32.34,91.0922737597318,2.856387015991843
plumbanone,O=[Pb],-3.5023551324,G1,-0.4996,6.440499999999999,1.0,0.0,2.0,0.0,0.0,0.0,0.0,0.0,17.07,28.82298984976956,2.0
"1,3-bis(2-methylphenyl)guanidine",Cc1ccccc1NC(N)=Nc2ccccc2C,-3.5338845835000003,G1,3.361740000000001,77.26310000000002,1.0,2.0,3.0,2.0,2.0,0.0,0.0,2.0,50.41,107.3683990352317,2.2046655351264843
"2-ethylpentyl 3-(3,5-ditert-butyl-4-hydroxyphenyl)propanoate",CCCC(CC)COC(=O)CCc1cc(c(O)c(c1)C(C)(C)C)C(C)(C)C,-7.098737149600001,G4,6.289300000000007,113.47580000000008,3.0,1.0,3.0,8.0,1.0,0.0,0.0,1.0,46.53,166.0696622603826,2.897579435279376
Longifolene,CC1(C)CCCC2(C)C3CCC(C13)C2=C,-4.412762427200001,G1,4.4150000000000045,64.58300000000004,0.0,0.0,0.0,0.0,0.0,3.0,3.0,3.0,0.0,94.14134413661012,2.097171261080974
2-phenylethyl 2-hydroxybenzoate,Oc1ccccc1C(=O)OCCc2ccccc2,-4.4891053349000005,G1,2.7917000000000014,68.53530000000003,3.0,1.0,3.0,4.0,2.0,0.0,0.0,2.0,46.53,105.6526247504975,1.878810272990811
"propane-1,2-diyl dibenzoate",CC(COC(=O)c1ccccc1)OC(=O)c2ccccc2,-4.5673029377,G1,3.088900000000001,78.04400000000004,4.0,0.0,4.0,5.0,2.0,0.0,0.0,2.0,52.6,122.86334255664536,1.8123485966934216
tricalcium diphosphate,[Ca++].[Ca++].[Ca++].[O-][P]([O-])([O-])=O.[O-][P]([O-])([O-])=O,-4.6051146656,G3,-6.791600000000001,32.475,8.0,0.0,13.0,0.0,0.0,0.0,0.0,0.0,172.5,163.59206791476095,-2.666666650625e-08
2-(2-methylbutan-2-yl)cyclohexyl acetate,CCC(C)(C)C1CCCCC1OC(C)=O,-4.4462039036,G1,3.544500000000003,61.58400000000005,2.0,0.0,2.0,3.0,0.0,1.0,1.0,1.0,26.3,93.38779257661028,2.687271883609664
2-cyclohexylidene-2-phenylacetonitrile,N#C[C](=[C]1CC[CH2]CC1)c2ccccc2,-4.4200239973,G1,3.9278800000000023,62.06000000000004,1.0,0.0,1.0,1.0,1.0,1.0,1.0,2.0,23.79,91.0480855304251,2.3513329494561472
"2-{2-[(2,6-dichlorophenyl)amino]phenyl}acetic acid",OC(=O)Cc1ccccc1Nc2c(Cl)cccc2Cl,-4.6202577876,G4,4.364100000000001,77.52650000000003,2.0,2.0,5.0,4.0,2.0,0.0,0.0,2.0,49.33,120.33053204396538,2.355887944232104
"1,1'-ethane-1,2-diylbis(4-nitrobenzene)",[O-][N+](=O)c1ccc(CCc2ccc(cc2)[N+]([O-])=O)cc1,-4.589885800199999,G1,3.2882000000000016,73.60080000000002,4.0,0.0,6.0,5.0,2.0,0.0,0.0,2.0,86.28,114.52433299935382,1.9738867162102545
"4-(2,4,4-trimethylpentan-2-yl)phenol",CC(C)(C)CC(C)(C)c1ccc(O)cc1,-4.4694622333,G1,4.106000000000003,65.20480000000005,1.0,1.0,1.0,2.0,1.0,0.0,0.0,1.0,20.23,93.14517378686584,2.9042644126592805
4-nonylphenol,CCCCCCCCCc1ccc(O)cc1,-4.4980268403,G1,4.685300000000005,69.80380000000005,1.0,1.0,1.0,8.0,1.0,0.0,0.0,1.0,20.23,99.51011590126248,2.005636511455824
N-(4-carbamoylphenyl)-4-methoxy-3-nitrobenzamide,COc1ccc(cc1[N+]([O-])=O)C(=O)Nc2ccc(cc2)C(N)=O,-4.6536052692,G1,1.9546,82.56150000000002,5.0,2.0,8.0,5.0,2.0,0.0,0.0,2.0,124.56,130.56264170146582,2.2165875826358943
dimethyl(octadecyl)amine,[Cl-].CCCCCCCCCCCCCCCCCC[NH+](C)C,-4.6786900339,G1,2.3964000000000008,97.2237000000001,0.0,1.0,2.0,17.0,0.0,0.0,0.0,0.0,4.44,147.58607812411796,0.0
tetrabutylazanium bromide,[Br-].CCCC[N+](CCCC)(CCCC)CCCC,1.3320248442,G1,2.007599999999999,79.36040000000008,0.0,0.0,2.0,12.0,0.0,0.0,0.0,0.0,0.0,126.69589001302488,0.0
cadmium dihydroxide,[OH-].[OH-].[Cd++],-3.3236333941,G1,-0.3560999999999999,3.8716,2.0,0.0,3.0,0.0,0.0,0.0,0.0,0.0,60.0,38.61253619029407,-0.0
"(2E)-3,7-dimethylocta-2,6-dien-1-ol",CC(C)=CCC\C(C)=C\CO,-2.3519095035,G3,2.6714000000000016,49.50780000000003,1.0,1.0,1.0,4.0,0.0,0.0,0.0,0.0,20.23,69.43875774522651,3.54438743137085
"1,2-dimethoxybenzene",COc1ccccc1OC,-1.3149750669,G1,1.7038,39.546000000000014,2.0,0.0,2.0,2.0,1.0,0.0,0.0,1.0,18.46,60.38837780730394,2.964000093923802
"2-(4,5-diamino-1H-pyrazol-1-yl)ethan-1-ol; sulfuric acid",Nc1cnn(CCO)c1N.O[S](O)(=O)=O,0.4442593444,G1,-1.612999999999999,52.315000000000005,7.0,5.0,10.0,2.0,1.0,0.0,0.0,1.0,164.68999999999997,85.88024074329637,3.359999894463337e-07
"disodium benzene-1,3-disulfonate",[Na+].[Na+].[O-][S](=O)(=O)c1cccc(c1)[S]([O-])(=O)=O,0.3709472853,G1,-6.497199999999997,42.368400000000015,6.0,0.0,10.0,2.0,1.0,0.0,0.0,1.0,114.39999999999998,137.51547438500216,0.0
tris(2-butoxyethyl) phosphate,CCCCOCCO[P](=O)(OCCOCCCC)OCCOCCCC,-2.7785623319,G3,4.594400000000005,102.64350000000007,7.0,0.0,8.0,21.0,0.0,0.0,0.0,0.0,72.45000000000002,159.1741490240883,4.044873528639152
1-methoxyhexane,CCCCCCOC,-2.2450853258000003,G1,2.2131,36.017999999999994,1.0,0.0,1.0,5.0,0.0,0.0,0.0,0.0,9.23,52.04244894371607,2.53006045688352
1-chloro-2-nitro-4-(trifluoromethyl)benzene,[O-][N+](=O)c1cc(ccc1Cl)C(F)(F)F,-2.5337046723,G1,3.2670000000000003,43.1084,2.0,0.0,7.0,1.0,1.0,0.0,0.0,1.0,43.14,81.24919339205375,3.267886414704282
Betamethasone,C[C@H]1C[C@H]2[C@@H]3CCC4=CC(=O)C=C[C@]4(C)[C@@]3(F)[C@@H](O)C[C@]2(C)[C@@]1(O)C(=O)CO,-3.7709815003,G1,1.8957,99.94440000000004,5.0,3.0,6.0,2.0,0.0,3.0,4.0,4.0,94.83,163.87178561127467,1.83769187946728
3-(4-isopropylphenyl)-2-methylpropanal,CC(C)c1ccc(cc1)C(C)CC=O,-3.4598629014,G1,3.502500000000002,59.627000000000045,1.0,0.0,1.0,4.0,1.0,0.0,0.0,1.0,17.07,86.14752002031699,2.7685390517773505
"(2,4,6-trimethylcyclohex-3-en-1-yl)methanol",CC1CC(=CC(C)C1CO)C,-2.3711973931,G1,2.2171000000000003,47.27780000000003,1.0,1.0,1.0,1.0,0.0,0.0,1.0,1.0,20.23,69.12252962388153,2.6865640960769337
"3,7-dimethylnona-1,6-dien-3-ol",CC/C(C)=C/CCC(C)(O)C=C,-2.4091286640000003,G1,3.0599000000000016,54.10280000000004,1.0,1.0,1.0,5.0,0.0,0.0,0.0,0.0,20.23,75.80369985962314,3.765107581306722
"tris(oxiran-2-ylmethyl) benzene-1,2,4-tricarboxylate",O=C(OCC1CO1)c2ccc(C(=O)OCC3CO3)c(c2)C(=O)OCC4CO4,-2.7622964758,G1,0.3533999999999997,86.50950000000005,9.0,0.0,9.0,9.0,1.0,3.0,3.0,4.0,116.49,153.95905270884117,1.484111837921581
"2,4-dimethyl-4-phenyltetrahydrofuran",CC1CC(C)(CO1)c2ccccc2,-2.4332379452,G1,2.7531000000000008,53.82500000000004,1.0,0.0,1.0,1.0,1.0,1.0,1.0,2.0,9.23,79.72876988185428,2.2576398223804985
ethyl 2-ethylhexanoate,CCCCC(CC)C(=O)OCC,-3.423291255,G1,2.765900000000001,49.93900000000003,2.0,0.0,2.0,6.0,0.0,0.0,0.0,0.0,26.3,75.29879738694964,3.706707862118944
quinolin-8-ol,Oc1cccc2cccnc12,-2.3496052546,G5,1.9403999999999997,43.407800000000016,2.0,1.0,2.0,0.0,2.0,0.0,0.0,2.0,33.120000000000005,64.1269493843747,2.9131611636048604
zinc dihydroxide,[OH-].[OH-].[Zn++],-2.1858288548,G1,-0.3560999999999999,3.8716,2.0,0.0,3.0,0.0,0.0,0.0,0.0,0.0,60.0,31.213312659297312,-0.0
"1,2-diethoxybenzene",CCOc1ccccc1OCC,-2.41045076,G1,2.484000000000001,48.78000000000003,2.0,0.0,2.0,4.0,1.0,0.0,0.0,1.0,18.46,73.11826203609715,2.765009423656173
(2E)-but-2-ene,C\C=C\C,-1.9394650737,G3,1.5824,20.488,0.0,0.0,0.0,0.0,0.0,0.0,0.0,0.0,0.0,27.14447433883512,2.549193338482967
D-erythro-pentitol,OCC(O)C(O)C(O)CO,0.6252744890999999,G1,-2.9463000000000004,32.191999999999986,5.0,5.0,5.0,4.0,0.0,0.0,0.0,0.0,101.15,58.17018824639602,3.685406534013343
"2-methylbuta-1,3-diene",CC(=C)C=C,-2.0257332357,G1,1.7485,25.01099999999999,0.0,0.0,0.0,1.0,0.0,0.0,0.0,0.0,0.0,32.81981342104747,3.204805417886435
"(Z)-N-(3-aminopropyl)-N'-[3-(9-octadecenylamino)propyl]propane-1,3-diamine",CCCCCCCC/C=C/CCCCCCCCNCCCNCCCNCCCN,-3.8360757577,G1,5.921700000000004,140.96650000000002,4.0,4.0,4.0,27.0,0.0,0.0,0.0,0.0,62.11,195.527620217794,3.0388102540216964
"3,7-dimethyloctan-1-ol",CC(C)CCCC(C)CCO,-3.3932597866000003,G1,2.831200000000002,49.555800000000026,1.0,1.0,1.0,6.0,0.0,0.0,0.0,0.0,20.23,70.81796380959504,3.099620830487698
1-phenylethan-1-one,CC(=O)c1ccccc1,-1.2803868403,G5,1.8892,36.44650000000001,1.0,0.0,1.0,1.0,1.0,0.0,0.0,1.0,17.07,54.32280944833394,2.981454614041131
(3E)-4-methyldec-3-en-5-ol,CCCCCC(O)C(/C)=C/CC,-3.4318638977,G1,3.283900000000002,54.19680000000004,1.0,1.0,1.0,6.0,0.0,0.0,0.0,0.0,20.23,76.49330289180737,3.56102372213532
butyl butanoate,CCCCOC(=O)CCC,-2.3610477791,G3,2.1298000000000004,40.775000000000006,2.0,0.0,2.0,5.0,0.0,0.0,0.0,0.0,26.3,62.56891315815645,3.052375189045708
"benzene-1,2-dicarboxylic acid",OC(=O)c1ccccc1C(O)=O,-1.4245732761,G5,1.083,40.360600000000005,2.0,2.0,4.0,2.0,1.0,0.0,0.0,1.0,74.6,68.07279905276974,3.267076195703771
"octahydro-1H-4,7-methanoindene-1-carbaldehyde",O=CC1CCC2C3CCC(C3)C12,-2.4199676473,G1,2.2576,46.599000000000025,1.0,0.0,1.0,1.0,0.0,3.0,3.0,3.0,17.07,73.5327008112517,1.8893890924787464
"hydrogen peroxide - 1,2-diisopropylbenzene (1:1)",CC(C)c1ccccc1C(C)C.OO,-2.4977135853,G1,3.9508000000000023,59.87760000000005,2.0,2.0,2.0,2.0,1.0,0.0,0.0,1.0,40.46,86.14464977953617,7.908332390743173e-07
"2,6-dimethylphenol",Cc1cccc(C)c1O,-1.292396158,G5,2.00904,37.5808,1.0,1.0,1.0,0.0,1.0,0.0,0.0,1.0,20.23,54.95552110048619,3.2478347337367026
RHENIUM,[Re],-0.4755079565,G1,-0.0025,0.0,0.0,0.0,1.0,0.0,0.0,0.0,0.0,0.0,0.0,21.147744044975223,0.0
1-phenylpropan-1-ol,CCC(O)c1ccccc1,-2.3403675905,G1,2.13,41.69280000000002,1.0,1.0,1.0,2.0,1.0,0.0,0.0,1.0,20.23,61.32046321488279,2.746978188530898
1-[3-(trifluoromethyl)phenyl]ethan-1-one,CC(=O)c1cccc(c1)C(F)(F)F,-2.4821079167,G1,2.9080000000000013,41.44850000000002,1.0,0.0,4.0,1.0,1.0,0.0,0.0,1.0,17.07,73.18435777150926,3.131063793808188
"2,4-dichloroaniline",Nc1ccc(Cl)cc1Cl,-2.4171742578,G3,2.575600000000001,40.87440000000001,1.0,1.0,3.0,0.0,1.0,0.0,0.0,1.0,26.02,63.37782627027303,3.171678030440915
"1,7,7-trimethylbicyclo[2.2.1]hept-2-yl acetate",CC(=O)O[C@@H]1C[C@@H]2CC[C@@]1(C)C2(C)C,-3.4963238418,G1,2.7643000000000013,54.78300000000005,2.0,0.0,2.0,1.0,0.0,2.0,2.0,2.0,26.3,86.01701930868443,2.225540267260561
4-[4-(hydrazinesulfonyl)phenoxy]benzene-1-sulfonohydrazide,NN[S](=O)(=O)c1ccc(Oc2ccc(cc2)[S](=O)(=O)NN)cc1,-3.7584891954,G1,-0.2170999999999993,81.9758,7.0,4.0,11.0,6.0,2.0,0.0,0.0,2.0,153.61,132.8433721416095,2.170531164207272
strontium(2+) ion hydrogen phosphate,[Sr++].[O-][P]([O-])([O-])=O,-3.4683853884,G1,-3.2054,13.3605,4.0,0.0,6.0,0.0,0.0,0.0,0.0,0.0,86.25,71.69461662928826,0.0
"Alkenes, C9-11, C10-rich",CC/C=C/CC/C=C/C=C,-3.34190657,G3,3.4750000000000023,48.00200000000003,0.0,0.0,0.0,5.0,0.0,0.0,0.0,0.0,0.0,63.954920960846245,3.11409266486537
"(2Z)-but-2-ene-1,4-diol",OC\C=C/CO,0.8466851642000001,G1,-0.4728,23.31159999999999,2.0,2.0,2.0,2.0,0.0,0.0,0.0,0.0,40.46,36.73294184322714,2.734385993561548
2-[2-(2-ethoxyethoxy)ethoxy]ethyl methacrylate,CCOCCOCCOCCOC(=O)C(C)=C,-0.6030114261,G1,1.1753999999999998,63.904000000000046,5.0,0.0,5.0,11.0,0.0,0.0,0.0,0.0,53.99,102.67971427207928,3.084416123053816
"(6R,7R)-3-[(acetyloxy)methyl]-7-amino-8-oxo-5-thia-1-azabicyclo[4.2.0]oct-2-ene-2-carboxylic acid",CC(=O)OCC1=C(N2[C@H](SC1)[C@H](N)C2=O)C(O)=O,-2.6489777217,G1,-0.8693999999999988,62.36220000000001,6.0,2.0,8.0,3.0,0.0,1.0,2.0,2.0,109.93,106.93764439257184,2.258623707224962
decanoic acid,CCCCCCCCCC(O)=O,-3.4452161366000005,G3,3.2117000000000013,50.24580000000002,1.0,1.0,2.0,8.0,0.0,0.0,0.0,0.0,37.3,74.97948590963883,2.86138733944056
2-methylpropane,CC(C)C,-2.977604072,G5,1.6623,20.512,0.0,0.0,0.0,0.0,0.0,0.0,0.0,0.0,0.0,27.83407737101937,2.3237900077244498
butane,CCCC,-2.977604072,G5,1.8064,20.582,0.0,0.0,0.0,1.0,0.0,0.0,0.0,0.0,0.0,27.834077371019376,1.9747448713915892
ethane,CC,-2.6913820060000004,G4,1.0262,11.348000000000004,0.0,0.0,0.0,0.0,0.0,0.0,0.0,0.0,0.0,15.104193142226158,1.0
"3-{6,6-dimethylbicyclo[3.1.1]hept-2-en-2-yl}propanal",CC1(C)C2CC=C(CCC=O)C1C2,-3.4657606101,G1,2.9579000000000013,53.37600000000004,1.0,0.0,1.0,3.0,0.0,1.0,3.0,3.0,17.07,80.2138710469933,2.050835295627111
2-(4-hydroxyphenyl)acetic acid,OC(=O)Cc1ccc(O)cc1,-0.3990804112,G5,1.0193,39.44660000000002,2.0,2.0,3.0,2.0,1.0,0.0,0.0,1.0,57.53,63.91127695272596,2.7362980721056545
(4-methoxyphenyl)methyl acetate,COc1ccc(COC(C)=O)cc1,-2.4740066421,G3,1.7583,48.46400000000003,3.0,0.0,3.0,3.0,1.0,0.0,0.0,1.0,35.53,77.27978413614093,2.5375612644950314
ammonium fluoride hydrofluoride,[H+].[NH4+].[F-].[F-],1.0233941334,G1,-5.5033,7.0968,0.0,1.0,3.0,0.0,0.0,0.0,0.0,0.0,36.5,18.44635242214793,-0.0
"6-phenyl-1,3,5-triazine-2,4-diamine",Nc1nc(N)nc(n1)c2ccccc2,-2.4941685135,G3,0.7029999999999998,54.08780000000001,5.0,2.0,5.0,1.0,2.0,0.0,0.0,2.0,90.71,80.82722266242597,2.521303589694852
4-tert-butylcyclohexyl prop-2-enoate,CC(C)(C)C1CCC(CC1)OC(=O)C=C,-3.539328096,G4,3.320500000000002,61.490000000000045,2.0,0.0,2.0,2.0,0.0,1.0,1.0,1.0,26.3,92.69818954442604,2.359659049742371
"1,4-dibromo-2-ethenylbenzene",Brc1ccc(Br)c(C=C)c1,-4.5787304077,G1,3.854600000000002,51.93300000000001,0.0,0.0,2.0,1.0,1.0,0.0,0.0,1.0,0.0,77.20677952738866,3.211310929132047
3-hydroxy-N-(2-methylphenyl)naphthalene-2-carboxamide,Cc1ccccc1NC(=O)c2cc3ccccc3cc2O,-4.6234419541000005,G1,4.106120000000002,84.74500000000005,2.0,2.0,3.0,2.0,3.0,0.0,0.0,3.0,49.33,122.40566412193726,1.9794710192312177
"methyl 3-amino-5,6-dichloropyrazine-2-carboxylate",COC(=O)c1nc(Cl)c(Cl)nc1N,-4.5348386091,G1,1.1522,47.8039,5.0,1.0,7.0,1.0,1.0,0.0,0.0,1.0,78.1,83.82207379050992,3.23123060519751
"N,N-dibutyloctadec-9-enamide",CCCCCCCC\C=C/CCCCCCCC(=O)N(CCCC)CCCC,-4.788985440799999,G1,8.452700000000007,125.8480000000001,1.0,0.0,2.0,21.0,0.0,0.0,0.0,0.0,20.31,177.0945566258077,3.511128153796721
"(1S,2S,4S)-1,7,7-trimethylbicyclo[2.2.1]heptan-2-yl 2-methylprop-2-enoate",CC(=C)C(=O)OC1CC2CCC1(C)C2(C)C,-4.5442204359,G3,3.320500000000002,63.923000000000044,2.0,0.0,2.0,2.0,0.0,2.0,2.0,2.0,26.3,98.05730050529338,2.1592743675639525
nonyl acetate,CCCCCCCCCOC(C)=O,-4.4708606495,G1,3.3001000000000023,54.62600000000005,2.0,0.0,2.0,8.0,0.0,0.0,0.0,0.0,26.3,81.66373950134629,2.8729187591669154
naphthalene,c1ccc2ccccc2c1,-4.3112256046,G4,2.839800000000001,43.94800000000003,0.0,0.0,0.0,0.0,2.0,0.0,0.0,2.0,0.0,60.11306765123217,2.888051601657992
cyclohexyl 2-hydroxybenzoate,Oc1ccccc1C(=O)OC2CCCCC2,-4.5540762927,G3,2.8817000000000013,60.395300000000034,3.0,1.0,3.0,2.0,1.0,1.0,1.0,2.0,46.53,95.04946784849064,1.9953977722801717
(4R)-1-methyl-4-(prop-1-en-2-yl)cyclohex-1-ene,CC(=C)[C@@H]1CCC(=CC1)C,-4.346837785,G5,3.308900000000002,45.91200000000003,0.0,0.0,0.0,1.0,0.0,0.0,1.0,1.0,0.0,63.63869283950127,2.495412226862891
hex-3-en-1-yl hex-3-enoate,CC\C=C/CCOC(=O)C\C=C/CC,-4.5097094839,G5,3.242200000000002,59.05500000000004,2.0,0.0,2.0,7.0,0.0,0.0,0.0,0.0,26.3,86.64947555137437,3.352724161035721
"13-ethyl-3-methoxy-4,6,7,8,9,11,12,13,14,15,16,17-dodecahydro-1H-cyclopenta[a]phenanthren-17-ol (non-preferred name)",CC[C@]12CC[C@H]3[C@@H](CCC4=C3CC=C(C4)OC)[C@@H]1CC[C@@H]2O,-4.7025138257,G1,4.594400000000005,88.25480000000005,2.0,1.0,2.0,2.0,0.0,2.0,4.0,4.0,29.46,134.17839950458256,1.6121118600673956
"2,3-dihydroxypropyl laurate",CCCCCCCCCCCC(=O)OCC(O)CO,-4.6602344394,G3,2.8037000000000014,75.89560000000004,4.0,2.0,4.0,13.0,0.0,0.0,0.0,0.0,66.76,116.71197546332476,3.1839590366954367
2-benzoyl-5-methoxyphenol,COc1ccc(c(O)c1)C(=O)c2ccccc2,-4.5802538276,G3,2.6318,64.53330000000003,3.0,1.0,3.0,3.0,2.0,0.0,0.0,2.0,46.53,99.28768263610088,2.382869010605733
Vertofix,CC1CCC2C(C)(C)C3CC12CC(=C3C)C(C)=O,-4.6134788776,G1,4.3742000000000045,74.20700000000005,1.0,0.0,1.0,1.0,0.0,2.0,3.0,3.0,17.07,111.03275046544712,2.149334590314391
ethyl benzoate,CCOC(=O)c1ccccc1,-2.3999022404,G5,1.8633,42.39850000000003,2.0,0.0,2.0,2.0,1.0,0.0,0.0,1.0,26.3,65.80129679223742,2.6930079504145
3-phenylpropanoic acid,OC(=O)CCc1ccccc1,-1.4057514128,G3,1.7038,42.39880000000003,1.0,1.0,2.0,3.0,1.0,0.0,0.0,1.0,37.3,65.48198531492656,2.453018743531937
"(2E)-3,7-dimethylocta-2,6-dienal",CC(C)=CCC\C(C)=C\C=O,-2.4116682055000003,G5,2.878000000000001,48.48600000000003,1.0,0.0,1.0,4.0,0.0,0.0,0.0,0.0,17.07,68.80604609307427,3.6257596603687854
2-hexylcyclopentanone,CCCCCCC1CCCC1=O,-3.4515155376,G1,3.3260000000000023,51.10700000000004,1.0,0.0,1.0,5.0,0.0,1.0,1.0,1.0,17.07,75.54436311831019,2.022982494030426
"2,4,4,7-tetramethyloct-6-en-3-one",CC(C)C(=O)C(C)(C)CC=C(C)C,-3.4892158636,G1,3.594000000000003,57.67400000000004,1.0,0.0,1.0,4.0,0.0,0.0,0.0,0.0,17.07,82.22553335405173,4.397313867312246
"Phenol, styrenated",Oc1ccc(C=C)cc1C=C,-3.3940626837,G2,2.678200000000001,48.28880000000002,1.0,1.0,1.0,2.0,1.0,0.0,0.0,1.0,20.23,66.3061992649109,3.2178354020244417
2-amino-5-chlorophenol,Nc1ccc(Cl)cc1O,-2.3906599281,G1,1.6278,37.52920000000001,2.0,2.0,3.0,0.0,1.0,0.0,0.0,1.0,46.25,57.86879379558736,3.171678030440915
4-ethoxybenzoic acid,CCOc1ccc(cc1)C(O)=O,-2.4548997462,G1,1.7835,44.57030000000002,2.0,1.0,3.0,3.0,1.0,0.0,0.0,1.0,46.53,70.59553054443344,2.780862288870475
"2,6-dichloro-4-(trifluoromethyl)aniline",Nc1c(Cl)cc(cc1Cl)C(F)(F)F,-3.591642752,G1,3.5944000000000003,45.8764,1.0,1.0,6.0,0.0,1.0,0.0,0.0,1.0,26.02,82.23937459344833,3.292030545545625
Desipramine,CNCCCN1c2ccccc2CCc3ccccc13,-3.6576170412,G3,3.5328000000000026,85.84170000000005,2.0,1.0,2.0,4.0,2.0,0.0,1.0,3.0,15.27,120.98201471222283,1.9961712661354007
"1-(4-chlorophenoxy)-1-(1H-imidazol-1-yl)-3,3-dimethylbutan-2-one",CC(C)(C)C(=O)C(Oc1ccc(Cl)cc1)n2ccnc2,-3.7030926455,G2,3.729300000000002,77.80600000000004,4.0,0.0,5.0,4.0,2.0,0.0,0.0,2.0,44.120000000000005,122.89526345692909,2.281223550397853
"decane-1,2-diol",CCCCCCCCC(O)CO,-2.4785789552,G1,2.0902000000000007,51.08560000000004,2.0,2.0,2.0,8.0,0.0,0.0,0.0,0.0,40.46,75.61219756179105,2.901852426069751
2-(butan-2-yl)cyclohexan-1-one,CCC(C)C1CCCCC1=O,-2.427057806,G1,2.791800000000001,46.42000000000002,1.0,0.0,1.0,2.0,0.0,1.0,1.0,1.0,17.07,69.17942100391356,2.4700357043729846
4-formyl-2-methoxyphenyl 2-methylpropanoate,COc1cc(C=O)ccc1OC(=O)C(C)C,-2.5886676064,G1,2.0691,58.85450000000003,4.0,0.0,4.0,4.0,1.0,0.0,0.0,1.0,52.6,94.1711904649779,2.954802731740674