Name,SMILES,Solubility,Group,MolLogP,MolMR,NumHAcceptors,NumHDonors,NumHeteroatoms,NumRotatableBonds,NumAromaticRings,NumSaturatedRings,NumAliphaticRings,RingCount,TPSA,LabuteASA,BalabanJ
toluene,Cc1ccccc1,-2.2062982993,G5,1.99502,31.17899999999999,0.0,0.0,0.0,0.0,1.0,0.0,0.0,1.0,0.0,43.79634523389357,3.0214653097240864
strontium 4-[(4-chloro-5-methyl-2-sulphonatophenyl)azo]-3-hydroxy-2-naphthoate (1:1),[Sr++].Cc1cc(N\N=C/2C(=O)C(=Cc3ccccc23)C([O-])=O)c(cc1Cl)[S]([O-])(=O)=O,-3.9441003714,G2,0.7039199999999999,104.4989,8.0,1.0,11.0,4.0,2.0,0.0,1.0,3.0,138.79,207.8352124899284,2.999996751336934e-06
"17-hydroxyandrosta-1,4-dien-3-one",C[C@]12CC[C@H]3[C@@H](CCC4=CC(=O)C=C[C@]34C)[C@@H]1CC[C@@H]2O,-3.7003596507,G1,3.655200000000003,82.62280000000004,2.0,1.0,2.0,0.0,0.0,3.0,4.0,4.0,37.3,126.86143426072285,1.704682463176863
"3-(4-ethylphenyl)-2,2-dimethylpropanenitrile",CCc1ccc(CC(C)(C)C#N)cc1,-3.3513392636000003,G1,3.341280000000002,58.91800000000004,1.0,0.0,1.0,3.0,1.0,0.0,0.0,1.0,23.79,86.37857760174195,2.7486300162092823
"1,6-dichlorohexane",ClCCCCCCCl,-3.4346473299,G1,3.0244000000000018,39.908000000000015,0.0,0.0,2.0,5.0,0.0,0.0,0.0,0.0,0.0,61.170494053575936,2.53006045688352
Tricyclodecenyl propionate,CCC(=O)OC1C=CC2C3CCC(C3)C12,-3.5585927938,G1,2.540300000000001,57.12200000000004,2.0,0.0,2.0,2.0,0.0,2.0,3.0,3.0,26.3,90.68652723736751,1.7245030282357003
ethoxybenzene,CCOc1ccccc1,-2.3318416428,G2,2.0853,37.61100000000001,1.0,0.0,1.0,2.0,1.0,0.0,0.0,1.0,9.23,55.274832577797056,2.61489994009295
"(2-methyl-1-oxo-1-prop-2-enoxypropan-2-yl) 2-chloro-5-[3-methyl-2,6-dioxo-4-(trifluoromethyl)pyrimidin-1-yl]benzoate",CN1C(=O)N(C(=O)C=C1C(F)(F)F)c2ccc(Cl)c(c2)C(=O)OC(C)(C)C(=O)OCC=C,-4.676528089,G1,2.873,107.94250000000004,8.0,0.0,12.0,6.0,2.0,0.0,0.0,2.0,96.6,183.9806056672757,2.5084448122570677
prop-2-en-1-yl 2-phenoxyacetate,C=CCOC(=O)COc1ccccc1,-2.5363732086,G1,1.7946,53.09300000000003,3.0,0.0,3.0,5.0,1.0,0.0,0.0,1.0,35.53,82.95512321835328,2.268439796540574
ammonium iodide,[NH4+].[I-],1.0867760203,G1,-2.6198,5.9848,0.0,1.0,2.0,0.0,0.0,0.0,0.0,0.0,36.5,30.648020540484183,0.0
hexanedioic acid - piperazine (1:1),OC(=O)CCCCC(O)=O.C1CNCCN1,-0.6232866861,G3,-0.1047999999999986,59.47900000000004,4.0,4.0,6.0,5.0,0.0,1.0,1.0,1.0,98.66,95.03496612909468,3.1499998902333376e-07
"4-amino-2,5-dimethoxy-N-methylbenzenesulfonamide",CN[S](=O)(=O)c1cc(OC)c(N)cc1OC,-3.6510805625,G1,0.1940999999999997,60.203900000000026,5.0,2.0,7.0,4.0,1.0,0.0,0.0,1.0,90.65,94.40384869473635,3.483191801543484
phosphoric acid; urea,NC(N)=O.O[P](O)(O)=O,0.5376020021,G1,-1.9048000000000005,28.033700000000003,2.0,5.0,8.0,0.0,0.0,0.0,0.0,0.0,146.87,50.518697606491095,0.0
urea,NC(N)=O,0.9578400994,G3,-0.9762000000000002,13.7708,1.0,2.0,3.0,0.0,0.0,0.0,0.0,0.0,69.11,23.580554521898744,2.8030394876740514
1H-benzimidazol-2-ol,O=C1Nc2ccccc2N1,-2.3927519971,G1,0.8561999999999999,38.91940000000001,1.0,2.0,3.0,0.0,2.0,0.0,0.0,2.0,48.65,56.70339815323675,3.007619546803024
carbon monoxide; iron,[Fe].[C-]#[O+].[C-]#[O+].[C-]#[O+].[C-]#[O+].[C-]#[O+],-3.2920233513,G3,-0.19005,19.6475,0.0,0.0,6.0,0.0,0.0,0.0,0.0,0.0,99.5,74.22020094962801,-6.944444441872428e-09
3-methyl-5-(prop-2-enoyloxy)pentyl prop-2-enoate,CC(CCOC(=O)C=C)CCOC(=O)C=C,-2.6214335505,G1,1.8611,60.71000000000003,4.0,0.0,4.0,8.0,0.0,0.0,0.0,0.0,52.6,95.92454288092505,3.473591235414658
3-chloroaniline,Nc1cccc(Cl)c1,-1.3733684129,G3,1.9222,35.86440000000001,1.0,1.0,2.0,0.0,1.0,0.0,0.0,1.0,26.02,53.07456004339135,3.077660437970554
decahydronaphthalen-2-yl acetate,CC(=O)OC1CCC2CCCCC2C1,-3.5605044152,G1,2.908400000000001,54.85300000000005,2.0,0.0,2.0,1.0,0.0,2.0,2.0,2.0,26.3,86.01701930868444,1.857394993050245
"2-hexadecan-2-yl-4,6-dimethylphenol",CCCCCCCCCCCCCCC(C)c1cc(C)cc(C)c1O,-7.335707322699999,G3,8.203740000000005,111.6908000000001,1.0,1.0,1.0,14.0,1.0,0.0,0.0,1.0,20.23,156.79459493083198,2.045784385643052
cyclopentene,C1CC=CC1,-2.1049144818000003,G3,1.7265,22.990999999999996,0.0,0.0,0.0,0.0,0.0,0.0,1.0,1.0,0.0,32.50358529970249,2.3238508690240813
"2-[(6-oxobenzo[c][2,1]benzoxaphosphinin-6-yl)methyl]butanedioic acid",OC(=O)CC(C[P]1(=O)Oc2ccccc2c3ccccc13)C(O)=O,-2.8135095056,G1,2.8249000000000004,87.99210000000005,4.0,2.0,7.0,5.0,2.0,0.0,1.0,3.0,100.9,137.70870383622187,2.063280667140745
methane; sulfuric acid,C.O[S](O)(=O)=O,-3.3330935045,G4,-0.0166999999999998,20.9084,2.0,2.0,5.0,0.0,0.0,0.0,0.0,0.0,74.6,36.37695581965344,0.0
hexafluoroethane,FC(F)(F)C(F)(F)F,-2.4239072122,G2,2.111,12.11,0.0,0.0,6.0,0.0,0.0,0.0,0.0,0.0,0.0,40.09740555978356,4.020391543176799
"(4E)-5,9-dimethyldeca-4,8-dienal",CC(C)=CCC\C(C)=C/CCC=O,-3.5383035446,G1,3.6582000000000026,57.72000000000004,1.0,0.0,1.0,6.0,0.0,0.0,0.0,0.0,17.07,81.5359303218675,3.601299450598324
phenyl methacrylate,CC(=C)C(=O)Oc1ccccc1,-2.4948513605,G1,2.1681,46.89100000000003,2.0,0.0,2.0,2.0,1.0,0.0,0.0,1.0,26.3,71.47663587444978,2.650397773274872
cobalt(2+) bis(4-oxopent-2-en-2-olate),[Co++].CC([O-])=CC(C)=O.CC([O-])=CC(C)=O,-1.6975300994,G3,-0.3235000000000001,48.876000000000026,4.0,0.0,5.0,2.0,0.0,0.0,0.0,0.0,80.25999999999999,99.88190033250186,-1.7999999773125007e-07
"2,6,6-trimethylcyclohexa-1,3-diene-1-carbaldehyde",CC1=C(C=O)C(C)(C)CC=C1,-2.4650077569,G1,2.4879000000000007,46.30200000000003,1.0,0.0,1.0,1.0,0.0,0.0,1.0,1.0,17.07,67.80021493954504,3.095228965638974
"2,6-di-tert-butyl-4-[(dimethylamino)methyl]phenol",CN(C)Cc1cc(c(O)c(c1)C(C)(C)C)C(C)(C)C,-2.7113870277,G4,4.048800000000004,82.89780000000006,2.0,1.0,2.0,2.0,1.0,0.0,0.0,1.0,23.47,117.99983380025904,3.4787084336700778
4-cyclohexyl-4-methylpentan-2-one,CC(=O)CC(C)(C)C1CCCCC1,-3.5481536429,G1,3.5720000000000027,55.654000000000046,1.0,0.0,1.0,3.0,0.0,1.0,1.0,1.0,17.07,81.90930523270679,2.501356702851932
5-methyl-2-(propan-2-yl)cyclohexan-1-ol,CC(C)C1CCC(C)CC1O,-2.4880091207,G5,2.439500000000001,47.34980000000002,1.0,1.0,1.0,1.0,0.0,1.0,1.0,1.0,20.23,69.8121326560658,2.437159260034696
Cobalt molybdate,[Co++].[O-][Mo]([O-])(=O)=O,-2.6343205414,G1,-2.6206,1.373,4.0,0.0,6.0,0.0,0.0,0.0,0.0,0.0,80.25999999999999,48.09100054232129,0.0
"1-N-phenylbenzene-1,4-diamine",Nc1ccc(Nc2ccccc2)cc1,-2.5631304762,G1,3.0124000000000013,60.579100000000025,2.0,2.0,2.0,2.0,2.0,0.0,0.0,2.0,38.05,83.37825020618176,2.155110851234288
"N,2-dimethyl-N-phenylbutanamide",CCC(C)C(=O)N(C)c1ccccc1,-1.5805795126,G1,2.695500000000001,59.307000000000045,1.0,0.0,2.0,3.0,1.0,0.0,0.0,1.0,20.31,85.54241157612375,2.756529398571093
dimethoxymethylvinylsilane,CO[Si](C)(OC)C=C,0.5776235848,G1,1.0764,35.83299999999999,2.0,0.0,3.0,3.0,0.0,0.0,0.0,0.0,18.46,51.36415121543909,3.763089869319169
pyridine-3-carboxamide,NC(=O)c1cccnc1,0.6121583154,G1,0.1805000000000001,32.7549,2.0,1.0,3.0,1.0,1.0,0.0,0.0,1.0,55.98,52.51740601189656,2.981454614041131
bis(4-hydroxy-N-methylanilinium) sulfate,CNc1ccc(O)cc1.CNc2ccc(O)cc2.O[S](O)(=O)=O,-0.838079267,G3,2.2149999999999994,89.48440000000004,6.0,6.0,9.0,2.0,2.0,0.0,0.0,2.0,139.12,134.55010937131544,3.317460287044029e-07
"3,5-dimethylphenol",Cc1cc(C)cc(O)c1,-1.3879839049,G3,2.00904,37.5808,1.0,1.0,1.0,0.0,1.0,0.0,0.0,1.0,20.23,54.95552110048619,3.165670309917317
"2,2-bis[(prop-2-enoyloxy)methyl]butyl prop-2-enoate",CCC(COC(=O)C=C)(COC(=O)C=C)COC(=O)C=C,-2.772789495,G1,1.5704,76.19200000000002,6.0,0.0,6.0,10.0,0.0,0.0,0.0,0.0,78.9,123.60483352148124,4.872529374632145
"2,6-dimethylheptan-4-one",CC(C)CC(=O)CC(C)C,-2.4540578458,G5,2.6477000000000013,43.917000000000016,1.0,0.0,1.0,4.0,0.0,0.0,0.0,0.0,17.07,63.82031004304616,3.4443870603345483
"4-allyl-1,2-dimethoxybenzene",COc1ccc(CC=C)cc1OC,-2.5520132395,G1,2.432300000000001,53.44700000000003,2.0,0.0,2.0,4.0,1.0,0.0,0.0,1.0,18.46,78.7936011183095,2.975326756105488
7-amino-4-hydroxynaphthalene-2-sulfonic acid,Nc1ccc2c(O)cc(cc2c1)[S](O)(=O)=O,-2.6798855726,G3,1.3743,59.83980000000002,4.0,3.0,6.0,1.0,2.0,0.0,0.0,2.0,100.62,91.8758281104815,2.851898648979944
aluminium(3+) ion 6-sulfonato-1-[(E)-2-(4-sulfonatophenyl)diazen-1-yl]naphthalen-2-olate,[Al+3].[O-]c1ccc2cc(ccc2c1N=Nc3ccc(cc3)[S]([O-])(=O)=O)[S]([O-])(=O)=O,-2.9368865529000003,G1,1.7562000000000002,95.69240000000002,9.0,0.0,12.0,4.0,3.0,0.0,0.0,3.0,162.17999999999998,170.54195846604932,2.803330335300545e-06
methyl 2-[3-(acetyloxy)-2-pentylcyclopent-2-en-1-yl]acetate,CCCCCC1=C(CCC1CC(=O)OC)OC(C)=O,-3.7219886724,G1,3.357000000000002,72.29100000000004,4.0,0.0,4.0,7.0,0.0,0.0,1.0,1.0,52.6,114.70314110276988,2.715815598281801
4-ethenylcyclohex-1-ene,C=CC1CCC=CC1,-3.3351930307,G1,2.5287000000000006,36.678,0.0,0.0,0.0,1.0,0.0,0.0,1.0,1.0,0.0,50.90880861070806,2.371415795500836
2-[(2-hydroxyethyl)[(9E)-octadec-9-en-1-yl]amino]ethan-1-ol,CCCCCCCC/C=C/CCCCCCCCN(CCO)CCO,-4.7801182897,G1,5.310500000000006,110.06360000000008,3.0,2.0,3.0,20.0,0.0,0.0,0.0,0.0,43.7,157.0617335725695,3.232520543937487
"tributyl benzene-1,2,4-tricarboxylate",CCCCOC(=O)c1ccc(C(=O)OCCCC)c(c1)C(=O)OCCCC,-4.807173711,G1,4.557300000000004,102.01350000000006,6.0,0.0,6.0,12.0,1.0,0.0,0.0,1.0,78.90000000000002,160.73073682409807,3.0087265310995903
"1-(butan-2-yl)-4-{4-[4-(4-hydroxyphenyl)piperazin-1-yl]phenyl}-4,5-dihydro-1H-1,2,4-triazol-5-one",CCC(C)N1N=CN(C1=O)c2ccc(cc2)N3CCN(CC3)c4ccc(O)cc4,-4.8285219564,G1,3.037200000000001,115.35880000000004,7.0,1.0,7.0,5.0,3.0,1.0,1.0,4.0,66.53,169.97157341041788,1.433146255584994
3-(trimethoxysilyl)propyl prop-2-enoate,CO[Si](CCCOC(=O)C=C)(OC)OC,-4.6063887787,G1,0.9837999999999998,57.36100000000003,5.0,0.0,6.0,8.0,0.0,0.0,0.0,0.0,53.99000000000001,91.33586076099132,3.808771305633729
undecan-1-ol,CCCCCCCCCCCO,-4.4804406676,G1,3.5095000000000023,54.31280000000004,1.0,1.0,1.0,9.0,0.0,0.0,0.0,0.0,20.23,77.18290592399167,2.72724281291869
barium(+2) cation; dioxidoboron,[Ba++].[O-][B][O-],-2.3407335191,G1,-3.1396,11.508,2.0,0.0,4.0,0.0,0.0,0.0,0.0,0.0,46.12,65.59601478398338,0.0
"(1S,2S,4S)-1,7,7-trimethylbicyclo[2.2.1]heptan-2-yl prop-2-enoate",CC1(C)[C@H]2CC[C@]1(C)C(C2)OC(=O)C=C,-4.5830924552,G3,2.930400000000001,59.30600000000004,2.0,0.0,2.0,2.0,0.0,2.0,2.0,2.0,26.3,91.6923583908968,2.1860629445674684
"2-quinolin-2-yl-1H-indene-1,3(2H)-dione",O=C1C(c2ccc3ccccc3n2)C(=O)c4ccccc14,-4.7011861265,G2,3.397600000000001,79.58700000000003,3.0,0.0,3.0,1.0,3.0,0.0,1.0,4.0,47.03,120.80184922799086,1.8649637073068857
tert-butoxy 2-ethylhexyl carbonate,CCCCC(CC)COC(=O)OOC(C)(C)C,-4.6599585126,G1,4.086100000000004,66.57700000000006,4.0,0.0,4.0,7.0,0.0,0.0,0.0,0.0,44.760000000000005,104.55000950489152,3.732232764465368
dicyclopentyldimethoxysilane,CO[Si](OC)(C1CCCC1)C2CCCC2,-4.6327996787,G2,3.6098000000000026,64.20800000000006,2.0,0.0,3.0,4.0,0.0,2.0,2.0,2.0,18.46,94.59668674134116,2.125017941958907
"3,3,5-trimethylcyclohexyl 2-methylprop-2-enoate",CC1CC(CC(C)(C)C1)OC(=O)C(C)=C,-4.5985985087,G1,3.320500000000002,61.490000000000045,2.0,0.0,2.0,2.0,0.0,1.0,1.0,1.0,26.3,92.698189544426,2.5571474595925494
"Butanal, reaction products with aniline",CCCC=O.Nc1ccccc1,-4.5021013295,G1,2.2542,51.82640000000003,2.0,1.0,2.0,2.0,1.0,0.0,0.0,1.0,43.09,73.39841552766912,2.168571397154082e-07
zinc(2+) ion didodecanoate,[Zn++].CCCCCCCCCCCC([O-])=O.CCCCCCCCCCCC([O-])=O,-4.9505314842,G1,5.311900000000005,113.7020000000001,4.0,0.0,5.0,20.0,0.0,0.0,0.0,0.0,80.25999999999999,192.9335905595252,-4.5066664846666747e-07
"3-methyl-N-(3-{3-methyl-N-[2-(3-methyl-N-{2-[2-(2-methylheptadecyl)-4,5-dihydro-1H-imidazol-1-yl]ethyl}octadecanamido)ethyl]octadecanamido}propyl)octadecanamide; 3-methyl-N-(3-{[2-(3-methyl-N-{2-[2-(2-methylheptadecyl)-4,5-dihydro-1H-imidazol-1-yl]ethyl}octadecanamido)ethyl]amino}propyl)octadecanamide; 3-methyl-N-(3-{[2-({2-[2-(2-methylheptadecyl)-4,5-dihydro-1H-imidazol-1-yl]ethyl}amino)ethyl]amino}propyl)octadecanamide; 3-methyl-N-[3-({2-[(2-{[2-(3-methyloctadecanamido)ethyl]amino}ethyl)amino]ethyl}amino)propyl]octadecanamide; 3-methyl-N-{2-[(2-{3-methyl-N-[2-(piperazin-1-yl)ethyl]octadecanamido}ethyl)amino]ethyl}octadecanamide; 3-methyl-N-{2-[2-(2-methylheptadecyl)-4,5-dihydro-1H-imidazol-1-yl]ethyl}-N-[2-(piperazin-1-yl)ethyl]octadecanamide; 3-methyl-N-{3-[(2-{3-methyl-N-[2-({2-[(4-methylnonadec-1-en-2-yl)amino]ethyl}amino)ethyl]octadecanamido}ethyl)amino]propyl}octadecanamide",CCCCCCCCCCCCCCCCCC(O)=O.NCCNCCNCCNCCN,-4.9604194489,G1,4.005100000000004,143.8997,6.0,6.0,7.0,26.0,0.0,0.0,0.0,0.0,125.43,205.15375883836336,0.0
(3Z)-hex-3-en-1-yl 2-hydroxybenzoate,CC/C=C/CCOC(=O)c1ccccc1O,-4.6439814041,G1,2.9053000000000018,62.43730000000004,3.0,1.0,3.0,5.0,1.0,0.0,0.0,1.0,46.53,95.36569596983564,2.4144167341440093
"(2S,5R)-5-methyl-2-(propan-2-yl)cyclohexan-1-one",CC(C)[C@@H]1CC[C@@H](C)CC1=O,-2.4918772305,G5,2.6477000000000013,46.35000000000002,1.0,0.0,1.0,1.0,0.0,1.0,1.0,1.0,17.07,69.17942100391355,2.50769391643314
4-(methoxycarbonyl)-3-nitrobenzoic acid,COC(=O)c1ccc(cc1[N+]([O-])=O)C(O)=O,-2.6570018481,G1,1.0796,51.39520000000001,5.0,1.0,7.0,3.0,1.0,0.0,0.0,1.0,106.74,89.41002836697703,3.35771253075613
"1,3,5-trimethylbenzene",Cc1cc(C)cc(C)c1,-3.382657059,G3,2.611860000000001,40.65300000000001,0.0,0.0,0.0,0.0,1.0,0.0,0.0,1.0,0.0,56.52622946268679,3.165670309917317
2-methyl-6-methylideneoct-7-en-2-yl acetate,CC(=O)OC(C)(C)CCCC(=C)C=C,-3.5974164985000003,G3,3.2406000000000024,59.03300000000004,2.0,0.0,2.0,6.0,0.0,0.0,0.0,0.0,26.3,86.6494755513744,3.808919296563424
2-chloro-1-methyl-4-nitrobenzene,Cc1ccc(cc1Cl)[N+]([O-])=O,-3.5442781768,G1,2.556620000000001,42.84340000000002,2.0,0.0,4.0,1.0,1.0,0.0,0.0,1.0,43.14,68.75258718327504,3.1515496683060507
"N,N,N-trimethyloctadecan-1-aminium chloride",[Cl-].CCCCCCCCCCCCCCCCCC[N+](C)(C)C,-3.8514567881,G1,3.9581000000000017,102.44540000000008,0.0,0.0,2.0,17.0,0.0,0.0,0.0,0.0,0.0,154.16099172510988,0.0
"N,N-dipropylpropan-1-amine",CCCN(CCC)CCC,-2.4722202552000003,G5,2.5184000000000006,47.31300000000002,1.0,0.0,1.0,6.0,0.0,0.0,0.0,0.0,3.24,65.41862161320577,3.2950821163049606
ammonia,N,1.4518068893,G5,0.1619999999999999,5.0221,1.0,1.0,1.0,0.0,0.0,0.0,0.0,0.0,35.0,7.50422812385033,0.0
2-oxo-N-{6-[(2-oxoazepane-1-carbonyl)amino]hexyl}azepane-1-carboxamide,O=C1CCCCCN1C(=O)NCCCCCCNC(=O)N2CCCCCC2=O,-3.9064006561,G1,2.771200000000001,105.62740000000008,4.0,2.0,8.0,7.0,0.0,2.0,2.0,2.0,98.82,166.92696900210456,1.498076736516945
3-methylbutyl 3-methylbutanoate,CC(C)CCOC(=O)CC(C)C,-3.5540595352999995,G1,2.621800000000001,49.86900000000003,2.0,0.0,2.0,5.0,0.0,0.0,0.0,0.0,26.3,75.29879738694964,3.319780860655868
2-propylheptan-1-ol,CCCCCC(CO)CCC,-3.5181985232,G5,2.9753000000000016,49.62580000000003,1.0,1.0,1.0,7.0,0.0,0.0,0.0,0.0,20.23,70.81796380959503,3.203898482222308
4-[2-(4-aminophenyl)ethyl]aniline,Nc1ccc(CCc2ccc(N)cc2)cc1,-3.6457005741,G1,2.6362000000000005,69.11680000000003,2.0,2.0,2.0,3.0,2.0,0.0,0.0,2.0,52.04,95.89816294837966,1.9660146345787248
methyl nicotinate,COC(=O)c1cccnc1,-0.4595508588,G1,0.8681999999999999,35.5765,3.0,0.0,3.0,1.0,1.0,0.0,0.0,1.0,39.19,58.65600265878734,2.8526279288191434
"calcium 2,3-dihydroxybutanedioate",[Ca++].O[C@H]([C@@H](O)C(O)=O)C(O)=O,-2.6024346943,G4,-2.5034,33.039199999999994,4.0,4.0,7.0,3.0,0.0,0.0,0.0,0.0,115.06,91.44982457511516,0.0
4-tert-butylbenzoic acid,CC(C)(C)c1ccc(cc1)C(O)=O,-3.5779623367,G4,2.682300000000001,52.10130000000003,1.0,1.0,2.0,1.0,1.0,0.0,0.0,1.0,37.3,78.21186954371979,3.0087408289185604
chlorocopper,[Cl-].[Cu+],-3.3235329498,G1,-2.9985,0.0,0.0,0.0,2.0,0.0,0.0,0.0,0.0,0.0,0.0,30.117191284673893,0.0
molybdenum nickel tetraoxide,[Ni++].[O-][Mo++]([O-])([O-])[O-],-1.6720680623,G1,-4.761,0.0,4.0,0.0,6.0,0.0,0.0,0.0,0.0,0.0,92.24,49.37566403741921,0.0
8-aminonaphthalene-2-sulfonic acid,Nc1cccc2ccc(cc12)[S](O)(=O)=O,-1.6822793230000002,G1,1.6687000000000003,58.17500000000002,3.0,2.0,5.0,1.0,2.0,0.0,0.0,2.0,80.39,87.0815943582855,2.8146550093014846
"1,1,1,2,2-pentafluoroethane",FC(F)C(F)(F)F,-1.4164957907,G3,1.8138,12.059,0.0,0.0,5.0,0.0,0.0,0.0,0.0,0.0,0.0,35.93187015685733,3.541196965079901
"2,3-dimethylphenol",Cc1cccc(O)c1C,-1.4241960776,G3,2.00904,37.5808,1.0,1.0,1.0,0.0,1.0,0.0,0.0,1.0,20.23,54.9555211004862,3.2478347337367026
5-chloro-7-iodoquinolin-8-ol,Oc1c(I)cc(Cl)c2cccnc12,-1.8222562261,G1,3.1984000000000004,61.134800000000006,2.0,1.0,4.0,0.0,2.0,0.0,0.0,2.0,33.120000000000005,93.6920537323,2.9668729339241464
tert-butyl 2-ethylhexaneperoxoate,CCCCC(CC)C(=O)OOC(C)(C)C,-3.6695176909,G1,3.4761000000000024,60.23600000000005,3.0,0.0,3.0,6.0,0.0,0.0,0.0,0.0,35.53,93.07152216098804,3.935059941711701
"2,6,6-trimethylbicyclo[3.1.1]heptane-3-carbaldehyde",CC1C(CC2CC1C2(C)C)C=O,-3.5580403929,G1,2.5036000000000005,48.71300000000003,1.0,0.0,1.0,1.0,0.0,3.0,3.0,3.0,17.07,74.53853196478093,2.163484667672594
2-methyl-4-phenylbutan-2-ol,CC(C)(O)CCc1ccccc1,-1.5556396769999998,G1,2.3901000000000003,51.06080000000004,1.0,1.0,1.0,3.0,1.0,0.0,0.0,1.0,20.23,74.05034744367602,2.4419972385383093
4-nitrophenyl acetate,CC(=O)Oc1ccc(cc1)[N+]([O-])=O,-2.5992568252,G3,1.5200999999999998,44.405400000000014,4.0,0.0,5.0,2.0,1.0,0.0,0.0,1.0,69.44,74.08933040034063,2.809454194164694
1-(1-benzofuran-2-yl)ethan-1-one,CC(=O)c1oc2ccccc2c1,-2.5484883965000003,G1,2.6354000000000006,46.21850000000003,2.0,0.0,2.0,1.0,2.0,0.0,0.0,2.0,30.21,69.79880324414599,2.697254060979738
2-amino-6-chloro-4-nitrophenol,[Cl-].[NH3+]c1cc(cc(Cl)c1O)[N+]([O-])=O,-2.6990298363,G1,-2.1688,42.3193,3.0,2.0,7.0,1.0,1.0,0.0,0.0,1.0,91.01,84.67486277063658,1.4399996774000746e-06
1-[(2-tert-butylcyclohexyl)oxy]butan-2-ol,CCC(O)COC1CCCCC1C(C)(C)C,-3.698734262,G1,3.378800000000002,67.45080000000006,2.0,1.0,2.0,4.0,0.0,1.0,1.0,1.0,29.46,100.38544634315912,2.474073272843526
"menthane, monohydroperoxy derivative",CC(C)C1CCC(C)CC1OO,-2.5888216416,G1,2.9368000000000007,48.84480000000003,2.0,1.0,2.0,2.0,0.0,1.0,1.0,1.0,29.46,74.85497320131098,2.501180984372024
"2-methylpropyl 3,5-diamino-4-chlorobenzoate",CC(C)COC(=O)c1cc(N)c(Cl)c(N)c1,-2.738284824,G3,2.3172,65.39730000000002,4.0,2.0,5.0,3.0,1.0,0.0,0.0,1.0,78.34,99.51422864193772,2.843280331678351
1-benzoylcyclohexan-1-ol,OC1(CCCCC1)C(=O)c2ccccc2,-2.6647801935,G1,2.5645000000000007,58.80730000000004,2.0,1.0,2.0,2.0,1.0,1.0,1.0,2.0,37.3,89.9359226189838,2.197389223945927
benzylhydrazine dihydrochloride,[H+].[H+].[Cl-].[Cl-].NNCc1ccccc1,-1.6467890106,G1,-5.117099999999997,39.69310000000002,2.0,2.0,4.0,2.0,1.0,0.0,0.0,1.0,38.05,81.9320173788392,-1.0124999593593769e-07
2-ethoxy-3-[[4-[2-(2H-tetrazol-5-yl)phenyl]phenyl]methyl]benzimidazole-4-carboxylic acid,CCOc1nc2cccc(C(O)=O)c2n1Cc3ccc(cc3)c4ccccc4c5n[nH]nn5,-6.4977813968,G1,4.028600000000002,122.013,7.0,2.0,9.0,7.0,5.0,0.0,0.0,5.0,118.81,188.2256647663815,1.5251377806690445
"2,4,6-trichloro-1,3,5-triazine",Clc1nc(Cl)nc(Cl)n1,-2.6223388564,G3,1.8318000000000003,34.857,3.0,0.0,6.0,0.0,1.0,0.0,0.0,1.0,38.67,66.00014574298152,3.165670309917317
2-tert-butyl-6-(3-tert-butyl-2-hydroxy-5-methoxyphenyl)-4-methoxyphenol,COc1cc(c(O)c(c1)C(C)(C)C)c2cc(OC)cc(c2O)C(C)(C)C,-6.7763112575,G1,5.377000000000006,105.71160000000006,4.0,2.0,4.0,3.0,2.0,0.0,0.0,2.0,58.92,155.95347643293283,2.877180826125157
Tazobactam,C[C@]1(Cn2ccnn2)[C@@H](N3[C@@H](CC3=O)[S]1(=O)=O)C(O)=O,-1.8384616763,G1,-1.523199999999998,64.02160000000002,7.0,1.0,10.0,3.0,1.0,2.0,2.0,3.0,122.46,113.637122738197,2.097498683882936
N-methyl-N-phenylformamide,CN(C=O)c1ccccc1,-1.4947809467,G1,1.2792,40.90900000000003,1.0,0.0,2.0,2.0,1.0,0.0,0.0,1.0,20.31,60.082643118537305,2.842015015980889
"4-aminobenzene-1,3-disulfonic acid",Nc1ccc(cc1[S](O)(=O)=O)[S](O)(=O)=O,-1.7700930025,G1,-0.2377999999999998,50.4836,5.0,3.0,9.0,2.0,1.0,0.0,0.0,1.0,134.76,86.02856583659091,3.573656095350445
2-isopropyl-5-methylcyclohexanol,CC(C)[C@@H]1CC[C@@H](C)C[C@@H]1O,-2.5604043774000003,G1,2.439500000000001,47.34980000000002,1.0,1.0,1.0,1.0,0.0,1.0,1.0,1.0,20.23,69.8121326560658,2.437159260034696
4-methoxy-3-nitrobenzoic acid,COc1ccc(cc1[N+]([O-])=O)C(O)=O,-2.6613195143,G1,1.3016,46.60770000000001,4.0,1.0,6.0,3.0,1.0,0.0,0.0,1.0,89.66999999999999,78.88356415253665,3.274414445393388
"androsta-1,4-diene-3,17-dione",CC12CCC3C(CCC4=CC(=O)C=CC34C)C1CCC2=O,-2.8204596094,G3,3.863400000000003,81.62300000000003,2.0,0.0,2.0,0.0,0.0,3.0,4.0,4.0,34.14,126.2287226085706,1.7204141031770943