Name,SMILES,Solubility,Group,MolLogP,MolMR,NumHAcceptors,NumHDonors,NumHeteroatoms,NumRotatableBonds,NumAromaticRings,NumSaturatedRings,NumAliphaticRings,RingCount,TPSA,LabuteASA,BalabanJ
isovaleryl diethylamide,CCN(CC)C(=O)CC(C)C,-0.5946,G1,1.9009,47.38300000000002,1.0,0.0,2.0,4.0,0.0,0.0,0.0,0.0,20.31,69.58014371324954,3.791570847424172
dmtt (dazomet),CN1CSC(=S)N(C)C1,-1.7331,G3,0.7967,45.44900000000002,3.0,0.0,4.0,0.0,0.0,1.0,1.0,1.0,6.48,65.19474594486361,2.438362799199123
"2-propanol, 1,3-diiodo-",OC(CI)CI,-1.3971,G1,1.2173,43.78080000000001,1.0,1.0,3.0,2.0,0.0,0.0,0.0,0.0,20.23,64.78704525090605,2.7541847860376616
"n,n-dimethylthiourea",CNC(=S)NC,0.9823,G1,-0.2899000000000002,30.7174,1.0,2.0,3.0,0.0,0.0,0.0,0.0,0.0,24.06,42.92763987104372,2.9881608821342693
"1,1-dimethoxyethane",COC(C)OC,1.0452,G1,0.6252,23.47999999999999,2.0,0.0,2.0,2.0,0.0,0.0,0.0,0.0,18.46,38.061167830033135,2.7541847860376616
butyl malonic acid,CCCCC(C(O)=O)C(O)=O,0.4369,G1,0.962,38.28659999999999,2.0,2.0,4.0,5.0,0.0,0.0,0.0,0.0,74.6,64.84041541868874,3.9029770084530906
m-cymene,CC(C)c1cccc(C)c1,-3.4994,G1,3.1184200000000013,45.26800000000003,0.0,0.0,0.0,1.0,1.0,0.0,0.0,1.0,0.0,62.89117157708338,2.955063748648017
2-chloro-4-methyl-6-(dimethylamino)pyrimidine,CN(C)c1cc(C)nc(Cl)n1,-1.2615,G1,1.50442,46.106000000000016,3.0,0.0,4.0,1.0,1.0,0.0,0.0,1.0,29.020000000000003,71.02862532166483,3.083430511392605
digallic acid,OC(=O)c1cc(O)c(O)c(OC(=O)c2cc(O)c(O)c(O)c2)c1,-2.8092,G3,1.1319999999999997,73.1258,8.0,6.0,9.0,3.0,2.0,0.0,0.0,2.0,164.75,127.42037349712471,2.390995742087407
4-ethylpyridine,CCc1ccncc1,-0.0006,G3,1.644,33.614999999999995,1.0,0.0,1.0,1.0,1.0,0.0,0.0,1.0,12.89,49.380935329236685,2.8320858350070908
"2,6-dibromoquinonechloroimide",ClN=C1C=C(Br)C(=O)C(=C1)Br,-3.7068,G1,2.7215,52.315,2.0,0.0,5.0,0.0,0.0,0.0,1.0,1.0,29.43,85.38580123853613,3.07423953829466
"l-tyrosine, n-methyl-",CN[C@@H](Cc1ccc(O)cc1)C(O)=O,-2.1325,G1,0.6072999999999997,52.29430000000003,3.0,3.0,4.0,4.0,1.0,0.0,0.0,1.0,69.56,82.19102336512725,2.6716306900583486
bis(2-chloroethyl)ethylamine,CCN(CCCl)CCCl,-3.0265,G1,1.7858999999999998,43.55400000000002,1.0,0.0,3.0,5.0,0.0,0.0,0.0,0.0,3.24,66.9303277237793,3.175341082395833
butyl cinnamate,CCCCOC(=O)/C=C/c1ccccc1,-1.6112,G1,3.0431000000000017,61.34300000000004,2.0,0.0,2.0,5.0,1.0,0.0,0.0,1.0,26.3,90.57146221763963,2.344827166745183
benzyl methyl ether,COCc1ccccc1,-1.6098,G1,1.833,37.15500000000001,1.0,0.0,1.0,2.0,1.0,0.0,0.0,1.0,9.23,55.274832577797056,2.61489994009295
c.i. disperse black 3,CN(C)c1ccc(cc1)N=Nc2ccc(N)cc2,-4.593999999999999,G1,3.750200000000002,75.79940000000002,4.0,1.0,4.0,3.0,2.0,0.0,0.0,2.0,53.98,106.7648837660594,2.1096551630526696
"2-propenoic acid, 3-(2-furanyl)-",OC(=O)/C=C/c1occc1,-1.8392,G1,1.3774,35.37780000000001,2.0,1.0,3.0,2.0,1.0,0.0,0.0,1.0,50.44,57.586711546819146,2.637337779014288
ethyl valerate,CCCCC(=O)OCC,-1.7706,G5,1.7397,36.158,2.0,0.0,2.0,4.0,0.0,0.0,0.0,0.0,26.3,56.20397104375984,3.0613168393721577
2-methylpropyl propanoate,CCC(=O)OCC(C)C,-1.8841,G1,1.5956,36.088,2.0,0.0,2.0,3.0,0.0,0.0,0.0,0.0,26.3,56.20397104375983,3.168818865415548
"cyclopropane, methoxy-",COC1CC1,-0.1176,G1,0.7952,20.030999999999995,1.0,0.0,1.0,1.0,0.0,1.0,1.0,1.0,9.23,31.941791446997023,1.9989394851788975
"1,2-ethylene dibromide",Br\C=C/Br,-1.3195,G1,2.2474,26.994,0.0,0.0,2.0,0.0,0.0,0.0,0.0,0.0,0.0,42.14968532132462,2.549193338482967
2-bromoethanol,OCCBr,0.9032,G1,0.3736,20.8798,1.0,1.0,2.0,1.0,0.0,0.0,0.0,0.0,20.23,33.76597450006353,1.9747448713915892
ethyl methyl ether,CCOC,-0.0799,G1,0.6527000000000001,17.55,1.0,0.0,1.0,1.0,0.0,0.0,0.0,0.0,9.23,26.582680486129647,1.9747448713915892
"1,2-dimethylhydrazine",CNNC,1.2211,G1,-0.6598000000000002,18.1194,2.0,2.0,2.0,1.0,0.0,0.0,0.0,0.0,24.06,26.174053529677217,1.9747448713915892
"2,2,4-trimethylpentane",CC(C)CC(C)(C)C,-4.6704,G3,3.0786000000000016,38.91,0.0,0.0,0.0,1.0,0.0,0.0,0.0,0.0,0.0,53.29384582860579,3.388924101358251
t-butyl acetate,CC(=O)OC(C)(C)C,-1.1443,G1,1.348,31.518999999999984,2.0,0.0,2.0,0.0,0.0,0.0,0.0,0.0,26.3,49.83902892936323,3.5512529243669317
dodecamethylcyclohexasiloxane,C[Si]1(C)O[Si](C)(C)O[Si](C)(C)O[Si](C)(C)O[Si](C)(C)O[Si](C)(C)O1,-7.9407,G1,4.310400000000003,111.40200000000006,6.0,0.0,12.0,0.0,0.0,1.0,1.0,1.0,55.38000000000001,154.19492032886598,3.240339766523186
decamethylcyclopentasiloxane,C[Si]1(C)O[Si](C)(C)O[Si](C)(C)O[Si](C)(C)O[Si](C)(C)O1,-7.3387,G1,3.5920000000000023,92.83500000000004,5.0,0.0,10.0,0.0,0.0,1.0,1.0,1.0,46.150000000000006,128.72384656737225,3.150538530787341
dichloro(2-chlorovinyl)arsine (trans),Cl/C=C/[As](Cl)Cl,-2.6177,G1,2.2439,32.453,0.0,0.0,4.0,1.0,0.0,0.0,0.0,0.0,0.0,54.64642052389768,3.032354946742984
"1,1-dichlorobutane",CCCC(Cl)Cl,-2.4036,G1,2.590200000000001,30.401999999999987,0.0,0.0,2.0,2.0,0.0,0.0,0.0,0.0,0.0,48.44060982478272,2.6272148478988635
barium formate,[Ba++].[O-]C=O.[O-]C=O,-0.0557,G1,-3.6486,17.881999999999998,4.0,0.0,5.0,0.0,0.0,0.0,0.0,0.0,80.25999999999999,80.59767655855785,-3.9999999812500013e-08
"butanoic acid, 3-amino-",CC(N)CC(O)=O,0.9867,G3,-0.1917,25.9022,2.0,2.0,3.0,2.0,0.0,0.0,0.0,0.0,63.32,42.12972392027186,3.126006652390634
acetoacetic acid,CC(=O)CC(O)=O,0.991,G1,0.0500999999999999,22.933799999999994,2.0,1.0,3.0,2.0,0.0,0.0,0.0,0.0,54.37,40.951355323302906,3.318019590380522
thioimidodicarbonic diamide,NC(=S)NC(N)=S,-1.6996,G1,-0.9368,36.70649999999999,2.0,3.0,5.0,0.0,0.0,0.0,0.0,0.0,64.07,52.051397214269386,3.318019590380522
"2h-pyran-2,4(3h)-dione, 6-methyl-",CC1=CC(=O)CC(=O)O1,-1.1185,G1,0.4062,29.472999999999992,3.0,0.0,3.0,0.0,0.0,0.0,1.0,1.0,43.370000000000005,52.305116843693504,2.7871437051215744
chlorocyclohexane,ClC1CCCCC1,-2.3752,G1,2.557900000000001,32.725999999999985,0.0,0.0,1.0,0.0,0.0,1.0,1.0,1.0,0.0,49.86139667316504,2.1229179499593664
"hexanedioic acid, 2-amino-",NC(CCCC(O)=O)C(O)=O,-1.8648,G1,-0.3468000000000003,37.09799999999999,3.0,3.0,5.0,5.0,0.0,0.0,0.0,0.0,100.62,63.81536400130485,3.3876453290370208
isobutyl formate,CC(C)COC=O,-1.0006,G1,0.8154,26.853999999999985,2.0,0.0,2.0,3.0,0.0,0.0,0.0,0.0,26.3,43.47408681496663,2.8099823316091586
n-butyl iodide,CCCCI,-2.9587,G1,2.2215,33.794999999999995,0.0,0.0,1.0,2.0,0.0,0.0,0.0,0.0,0.0,47.09591549206301,2.19060968716425
bis(chloromethyl) ether,ClCOCCl,-0.7181,G1,1.3956,22.52499999999999,1.0,0.0,3.0,2.0,0.0,0.0,0.0,0.0,9.23,40.824270825496384,2.19060968716425
cyclopentadiene,C1C=CC=C1,-1.565,G1,1.5025,22.89699999999999,0.0,0.0,0.0,0.0,0.0,0.0,1.0,1.0,0.0,31.813982267518234,2.609648108945015
"ethanesulfonic acid, 2-[(aminoiminomethyl)amino]",NC(N)=NCC[S](O)(=O)=O,-0.6321,G1,-1.8523999999999996,37.09240000000001,3.0,3.0,7.0,3.0,0.0,0.0,0.0,0.0,118.77,58.67287514654894,3.692478072416992
isobutyl nitrate,CC(C)CO[N+]([O-])=O,-1.9521,G1,0.8507,27.78439999999999,3.0,0.0,4.0,3.0,0.0,0.0,0.0,0.0,52.37,47.55463682250403,3.0500782919131915
1-chloropentane,CCCCCCl,-2.7324,G1,2.415400000000001,30.244999999999987,0.0,0.0,1.0,3.0,0.0,0.0,0.0,0.0,0.0,44.502285712297656,2.3390923149762908
barium acetate,[Ba++].CC([O-])=O.CC([O-])=O,0.1948,G1,-2.8683999999999994,27.115999999999996,4.0,0.0,5.0,0.0,0.0,0.0,0.0,0.0,80.25999999999999,93.32756078735108,-7.199999951999999e-08
n-methyl butylcarbamate,CC(C)CCOC(N)=O,-1.4403,G1,1.1278,34.99039999999999,2.0,1.0,3.0,3.0,0.0,0.0,0.0,0.0,52.32,55.17891962637594,3.006105030052141
"1-butanol, 3-methyl-, nitrate",CC(C)CCO[N+]([O-])=O,-2.4809,G1,1.2408,32.40139999999999,3.0,0.0,4.0,4.0,0.0,0.0,0.0,0.0,52.37,53.91957893690064,3.006105030052141
strontium acetate,[Sr++].CC([O-])=O.CC([O-])=O,0.1446,G1,-2.8683999999999994,27.115999999999996,4.0,0.0,5.0,0.0,0.0,0.0,0.0,0.0,80.25999999999999,90.1394160138204,-7.199999951999999e-08
pentanedinitrile,N#CCCCC#N,1.0263,G1,1.20386,25.07699999999999,2.0,0.0,2.0,2.0,0.0,0.0,0.0,0.0,47.58,42.984178848353416,2.7683855790457867
n-hexadecane,CCCCCCCCCCCCCCCC,-8.4007,G1,6.487600000000007,75.98600000000008,0.0,0.0,0.0,13.0,0.0,0.0,0.0,0.0,0.0,104.2133827437787,2.828262412638549
n1-(4-so2nh2-ph)sulfanilamide,Nc1ccc(cc1)[S](=O)(=O)Nc2ccc(cc2)[S](N)(=O)=O,-2.7592,G1,0.7170000000000003,79.47810000000001,5.0,3.0,9.0,4.0,2.0,0.0,0.0,2.0,132.35,122.23969268802465,2.2670283397663438
"2-hydroxypropanoic acid, methyl ester",COC(=O)C(C)O,0.9825,G1,-0.4598000000000001,23.696799999999996,3.0,1.0,3.0,1.0,0.0,0.0,0.0,0.0,46.53,41.90337845276602,3.3530759537985286
alpha-methylene butyrolactone,C=C1CCOC1=O,0.1844,G1,0.4895,24.715999999999998,2.0,0.0,2.0,0.0,0.0,1.0,1.0,1.0,26.3,41.778652629253145,2.6513102204228143
hyocholic acid,C[C@H](CCC(O)=O)[C@H]1CC[C@H]2[C@@H]3[C@H](O)[C@H](O)[C@@H]4C[C@H](O)CC[C@]4(C)[C@H]3CC[C@]12C,-4.3465,G1,3.4487000000000023,110.03720000000008,4.0,4.0,5.0,4.0,0.0,4.0,4.0,4.0,97.99,174.44805215366245,1.592996071933069
ethyl biscoumacetate,CCOC(=O)C(C1=C(O)Oc2ccccc2C1=O)C3=C(O)Oc4ccccc4C3=O,-3.4264,G1,3.005600000000002,106.77360000000002,8.0,2.0,8.0,4.0,4.0,0.0,0.0,4.0,127.18,168.10780752866611,2.0897954140740493
o-thymotic acid,CC(C)c1ccc(C)c(C(O)=O)c1O,-3.2883,G1,2.522220000000001,53.89210000000003,2.0,2.0,3.0,2.0,1.0,0.0,0.0,1.0,57.53,83.00610329591579,3.4105045818157524
amisometradine,CN1C(=O)C=C(N)N(CC(C)=C)C1=O,-0.9895,G1,-0.2947000000000004,55.16940000000001,5.0,1.0,5.0,2.0,1.0,0.0,0.0,1.0,70.02,81.08868449147967,3.4447593927753366
nebularine,OC[C@H]1O[C@H]([C@H](O)[C@@H]1O)n2cnc3cncnc23,-0.4018,G1,-1.5622000000000007,58.33240000000003,8.0,3.0,8.0,2.0,2.0,1.0,1.0,3.0,113.52,101.50626940623005,2.001953419518878
1-nitro-2-naphthol,Oc1ccc2ccccc2c1[N+]([O-])=O,-2.9758,G1,2.4536000000000007,52.26720000000001,3.0,1.0,4.0,1.0,2.0,0.0,0.0,2.0,63.37,79.56027712592798,2.895160176988298
"2,4,6-trichloro-3-methylphenol",Cc1c(Cl)cc(Cl)c(O)c1Cl,-3.2761,G1,3.6608200000000006,47.87380000000001,1.0,1.0,4.0,0.0,1.0,0.0,0.0,1.0,20.23,79.50037766673461,3.455546483817784
9-methyl-9-azabicyclo[3.3.1]nonan-3-one,CN1C2CCCC1CC(=O)C2,0.4167,G1,1.2022000000000002,43.43100000000002,2.0,0.0,2.0,0.0,0.0,2.0,2.0,2.0,20.31,67.56848140619108,2.1227671281724665
"3-pyridinecarboxylic acid, hydrazide",NNC(=O)c1cccnc1,-0.1372,G1,-0.3149000000000006,35.89060000000001,3.0,2.0,4.0,1.0,1.0,0.0,0.0,1.0,68.00999999999999,58.03740421573959,2.8526279288191434
5-nitro-2-propoxyaniline,CCCOc1ccc(cc1N)[N+]([O-])=O,-3.1592,G1,1.9658,53.294800000000016,4.0,1.0,5.0,4.0,1.0,0.0,0.0,1.0,78.38999999999999,81.63264111170618,2.8414580221504524
methyl oxalate,COC(=O)C(=O)OC,-0.2919,G1,-0.6676000000000002,24.03199999999999,4.0,0.0,4.0,0.0,0.0,0.0,0.0,0.0,52.60000000000001,46.384212030120665,3.643224945571916
methyldopa,C[C@](N)(Cc1ccc(O)c(O)c1)C(O)=O,-1.3247,G1,0.4423000000000001,53.703800000000015,4.0,4.0,5.0,3.0,1.0,0.0,0.0,1.0,103.78,86.77528563072794,2.905062365401662
maleanilic acid,OC(=O)\C=C/C(=O)Nc1ccccc1,-2.2815,G1,1.2658999999999998,51.84750000000002,2.0,2.0,4.0,3.0,1.0,0.0,0.0,1.0,66.39999999999999,80.86870868079075,2.540353584979256
nifuradene,[O-][N+](=O)c1oc(cc1)\C=N\N2CCNC2=O,-3.3572,G1,0.5468999999999999,53.061100000000025,5.0,1.0,8.0,3.0,1.0,1.0,1.0,2.0,100.98,89.66932187008109,2.0507091679266773
d-tyrosine,N[C@H](Cc1ccc(O)cc1)C(O)=O,-2.6049,G1,0.3466,47.42200000000002,3.0,3.0,4.0,3.0,1.0,0.0,0.0,1.0,83.55000000000001,75.6161097641353,2.641763904889644
dl-tyrosine,NC(Cc1ccc(O)cc1)C(O)=O,-2.6561,G5,0.3466,47.42200000000002,3.0,3.0,4.0,3.0,1.0,0.0,0.0,1.0,83.55000000000001,75.6161097641353,2.641763904889644
zinc valerate,[Zn++].CCCCC([O-])=O.CCCCC([O-])=O,-1.2722,G1,-0.1494999999999997,49.06400000000003,4.0,0.0,5.0,6.0,0.0,0.0,0.0,0.0,80.25999999999999,103.82440095797268,-1.7999999704687505e-07
oxiranemethanol,OCC1CO1,1.1303,G1,-0.6225,16.8258,2.0,1.0,2.0,1.0,0.0,1.0,1.0,1.0,32.76,30.371083084796428,1.9989394851788975
2-pyrimidone,O=C1NC=CC=N1,0.6749,G1,-0.2300999999999999,24.857699999999998,2.0,1.0,3.0,0.0,1.0,0.0,0.0,1.0,45.75,40.03222118143376,3.27532977603021
methyl propyl ether,CCCOC,-0.3857,G3,1.0428,22.166999999999994,1.0,0.0,1.0,2.0,0.0,0.0,0.0,0.0,9.23,32.94762260052625,2.19060968716425
1-monobutyrin,CCCC(=O)OCC(O)CO,-1.335,G1,-0.3170999999999998,38.9596,4.0,2.0,4.0,5.0,0.0,0.0,0.0,0.0,66.76,65.79243854815186,3.298262292410384
zinc acetate,[Zn++].CC([O-])=O.CC([O-])=O,0.2179,G1,-2.490099999999999,21.36199999999999,4.0,0.0,5.0,0.0,0.0,0.0,0.0,0.0,80.25999999999999,65.63474827159301,-7.199999951999999e-08
allyl ether,C=CCOCC=C,-0.0206,G1,1.375,31.212999999999987,1.0,0.0,1.0,4.0,0.0,0.0,0.0,0.0,9.23,44.29830076495096,2.679549206552144
zinc formate,[Zn++].[O-]C=O.[O-]C=O,-0.4755,G1,-3.2703,12.128,4.0,0.0,5.0,0.0,0.0,0.0,0.0,0.0,80.25999999999999,52.90486404279978,-3.9999999812500013e-08
carbon tetrabromide,BrC(Br)(Br)Br,-3.1404,G1,3.1773,38.439,0.0,0.0,4.0,0.0,0.0,0.0,0.0,0.0,0.0,64.20944145039498,3.0237157840738176
fluoromethyl sulfone,C[S](F)(=O)=O,-0.5145,G1,-0.0844999999999999,15.951800000000002,2.0,0.0,4.0,0.0,0.0,0.0,0.0,0.0,34.14,29.825681855149757,4.062942298971397
"2-propanol, 1-chloro-2-methyl-",CC(C)(O)CCl,0.1602,G1,0.9961,27.01779999999999,1.0,1.0,2.0,1.0,0.0,0.0,0.0,0.0,20.23,42.93157735009705,3.1684898726705697
"methane, bromotrinitro-",[O-][N+](=O)C(Br)([N+]([O-])=O)[N+]([O-])=O,-1.7705,G1,-0.1773,32.641200000000005,6.0,0.0,10.0,3.0,0.0,0.0,0.0,0.0,129.42000000000002,66.5657258009703,4.985152095352672
heroin,CN1CC[C@]23[C@H]4Oc5c(OC(C)=O)ccc(C[C@@H]1[C@@H]2C=C[C@@H]4OC(C)=O)c35,-2.7894,G1,1.9886,96.76800000000006,6.0,0.0,6.0,2.0,1.0,1.0,4.0,5.0,65.07,157.6161207479565,1.713086629534262
"3,3-dimethylpentane",CCC(C)(C)CC,-4.2286,G1,2.832600000000001,34.362999999999985,0.0,0.0,0.0,2.0,0.0,0.0,0.0,0.0,0.0,46.92890371420919,3.360435142696057
ethion,CCO[P](=S)(OCC)SCS[P](=S)(OCC)OCC,-5.2838,G3,5.005300000000004,95.12300000000003,8.0,0.0,10.0,12.0,0.0,0.0,0.0,0.0,36.92,134.44287384816894,4.359571541268355
3-methyl-1-butene,CC(C)C=C,-2.732,G1,1.8284,25.03499999999999,0.0,0.0,0.0,1.0,0.0,0.0,0.0,0.0,0.0,33.50941645323172,2.825749368745867
2-methyl-1-butene,CCC(C)=C,-2.7307,G1,1.9725,25.10499999999999,0.0,0.0,0.0,1.0,0.0,0.0,0.0,0.0,0.0,33.50941645323173,2.847378923087672
3-chloro-2-methylpropene,CC(=C)CCl,-1.8108,G1,1.8013,25.53399999999999,0.0,0.0,1.0,1.0,0.0,0.0,0.0,0.0,0.0,37.44774056571679,2.847378923087672
"1,2-dichloropropene",C\C(Cl)=C\Cl,-1.6138,G1,2.3253000000000004,25.462999999999997,0.0,0.0,2.0,0.0,0.0,0.0,0.0,0.0,0.0,41.386064678201855,3.1431973062780685
"2-butanol, 3-chloro-",CC(O)C(C)Cl,-0.2122,G1,0.9945,26.99579999999999,1.0,1.0,2.0,1.0,0.0,0.0,0.0,0.0,20.23,42.93157735009706,2.993497243478473
"1,2:3,4-diepoxybutane",C1O[C@@H]1[C@H]2CO2,1.065,G1,-0.2159999999999999,19.48,2.0,0.0,2.0,1.0,0.0,2.0,2.0,2.0,25.06,36.04950552297468,1.9155467020454344
"2,2,3-trimethylpentane",CCC(C)C(C)(C)C,-4.6776,G1,3.0786000000000016,38.91,0.0,0.0,0.0,1.0,0.0,0.0,0.0,0.0,0.0,53.29384582860579,3.623281003705976
"2,3-dimethylpentane",CCC(C)C(C)C,-4.2808,G1,2.688500000000001,34.292999999999985,0.0,0.0,0.0,2.0,0.0,0.0,0.0,0.0,0.0,46.92890371420919,3.1442082073698243
3-methyl-2-pentanol,CCC(C)C(C)O,-0.7216,G1,1.4133,31.135799999999985,1.0,1.0,1.0,2.0,0.0,0.0,0.0,0.0,20.23,45.3581953520086,3.1442082073698243
3-methylpentan-2-one,CCC(C)C(C)=O,-0.6805,G3,1.6215,30.13599999999998,1.0,0.0,1.0,2.0,0.0,0.0,0.0,0.0,17.07,44.72548369985635,3.34341705895396
2-methyl-3-pentanol,CCC(O)C(C)C,-0.7062,G1,1.4133,31.135799999999985,1.0,1.0,1.0,2.0,0.0,0.0,0.0,0.0,20.23,45.35819535200859,3.1442082073698243
2-methyl-3-pentanone,CCC(=O)C(C)C,-0.8106,G1,1.6215,30.13599999999998,1.0,0.0,1.0,2.0,0.0,0.0,0.0,0.0,17.07,44.72548369985634,3.3530759537985286
"propanoic acid, 3-amino-2-hydroxy-",NCC(O)C(O)=O,-0.8229,G3,-1.6094000000000002,22.697,3.0,3.0,4.0,2.0,0.0,0.0,0.0,0.0,83.55000000000001,40.55901555807127,3.34341705895396
2-bromo-3-methyl-butanoic acid,CC(C)C(Br)C(O)=O,-1.103,G1,1.4905000000000002,35.18879999999999,1.0,1.0,3.0,2.0,0.0,0.0,0.0,0.0,37.3,57.02232294329711,3.637682547839839
"2,3,4-trimethylpentane",CC(C)C(C)C(C)C,-4.6961,G3,2.9345000000000017,38.84,0.0,0.0,0.0,2.0,0.0,0.0,0.0,0.0,0.0,53.29384582860579,3.464226847231096
"2,4-dimethyl-3-pentanone",CC(C)C(=O)C(C)C,-1.3018,G1,1.8675,34.682999999999986,1.0,0.0,1.0,2.0,0.0,0.0,0.0,0.0,17.07,51.09042581425295,3.65123357893369
"butanoic acid, 3-amino-2-hydroxy-",CC(N)C(O)C(O)=O,-0.3535,G1,-1.2208999999999997,27.291999999999994,3.0,3.0,4.0,2.0,0.0,0.0,0.0,0.0,83.55000000000001,46.92395767246787,3.637682547839839
alpha-peltatin,COc1cc(cc(OC)c1O)[C@H]2[C@@H]3[C@H](COC3=O)Cc4c(O)c5OCOc5cc24,-4.1254,G1,2.3209,98.92660000000002,8.0,2.0,8.0,3.0,2.0,1.0,3.0,5.0,103.68000000000002,166.07319864651305,1.7512594142247215
meconin,COc1ccc2COC(=O)c2c1OC,-1.8903,G3,1.3742,48.66550000000002,4.0,0.0,4.0,2.0,1.0,0.0,1.0,2.0,44.760000000000005,81.38749821211856,2.625252291498254
"1h-imidazole-4,5-dicarboxylic acid",OC(=O)c1[nH]cnc1C(O)=O,-2.4944,G1,-0.1939,32.5063,3.0,3.0,6.0,2.0,1.0,0.0,0.0,1.0,103.28,60.50160745473054,3.1577040058576493
inositol monophosphate,OC1C(O)C(O)C(O[P](O)(O)=O)C(O)C1O,0.1076,G1,-3.717600000000001,46.951100000000025,7.0,7.0,10.0,2.0,0.0,1.0,1.0,1.0,167.91,89.78092261563741,2.867032609706742
"benzoic acid, 2-hydroxy-, methoxymethyl ester",COCOC(=O)c1ccccc1O,-2.3,G1,1.1529,45.39830000000003,4.0,1.0,4.0,3.0,1.0,0.0,0.0,1.0,55.760000000000005,75.70907577394033,2.710721902361315
"3,4-piperidinedicarboxylic acid",OC(=O)C1CCNCC1C(O)=O,-0.5395,G1,-0.6187,39.7383,3.0,3.0,5.0,2.0,0.0,1.0,1.0,1.0,86.63,69.38444644876756,2.665364343758954
1-aminoacridine,Nc1cccc2nc3ccccc3cc12,-4.222,G1,2.970200000000001,63.661400000000015,2.0,1.0,2.0,0.0,3.0,0.0,0.0,3.0,38.91,87.35427086092659,2.5325611743067453
meso-hydrobenzoin,OC(C(O)c1ccccc1)c2ccccc2,-1.933,G1,2.4536,62.803600000000046,2.0,2.0,2.0,3.0,2.0,0.0,0.0,2.0,40.46,94.80684905874624,2.201461460129332
"2,6-diethylaniline",CCc1cccc(CC)c1N,-2.3478,G1,2.3936,49.61040000000003,1.0,1.0,1.0,2.0,1.0,0.0,0.0,1.0,26.02,68.2310622740961,3.0951982523071
2-bromonaphthalene,Brc1ccc2ccccc2c1,-4.4001,G1,3.6023000000000014,51.64800000000002,0.0,0.0,1.0,0.0,2.0,0.0,0.0,2.0,0.0,73.98061525687353,2.828901215620696
3-quinolinol,Oc1cnc2ccccc2c1,-2.3925,G1,1.9404,43.40780000000002,2.0,1.0,2.0,0.0,2.0,0.0,0.0,2.0,33.120000000000005,64.1269493843747,2.828901215620696
7-quinolinol,[O-]c1ccc2ccc[nH+]c2c1,-2.5038,G1,0.7274999999999998,39.949700000000014,1.0,0.0,2.0,0.0,2.0,0.0,0.0,2.0,37.2,64.1269493843747,2.828901215620696
chlorazine,CCN(CC)c1nc(Cl)nc(n1)N(CC)CC,-4.4112,G3,2.2174,71.95900000000005,5.0,0.0,6.0,6.0,1.0,0.0,0.0,1.0,45.150000000000006,107.83281754479778,3.083535018710021
anatabine,C1N[C@@H](CC=C1)c2cccnc2,0.7953,G1,1.6722,48.737700000000025,2.0,1.0,2.0,1.0,1.0,0.0,1.0,2.0,24.92,72.33018967032106,2.1465524794439075
"2,3'-bipyridine",c1ccc(nc1)c2cccnc2,-0.5916,G1,2.1435999999999997,47.46800000000002,2.0,0.0,2.0,1.0,2.0,0.0,0.0,2.0,25.78,70.92779328745401,2.457149480139045
"8h-purine-8-thione, 1,7-dihydro-",S=C1Nc2cncnc2N1,-2.5243,G1,1.01549,39.07339999999999,3.0,2.0,5.0,0.0,2.0,0.0,0.0,2.0,57.36,61.3399522622909,3.007619546803024
potassium oxalate,[K+].[K+].[O-]C(=O)C([O-])=O,0.1773,G3,-9.5058,10.014,4.0,0.0,6.0,0.0,0.0,0.0,0.0,0.0,80.25999999999999,130.8608342374309,-1.249999955000002e-07
allethrin,CC(C)=CC1C(C(=O)OC2CC(=O)C(=C2C)CC=C)C1(C)C,-4.8179,G1,4.002000000000003,87.21000000000005,3.0,0.0,3.0,5.0,0.0,1.0,2.0,2.0,43.370000000000005,132.6643271129517,2.067252683908675
"alanine, n-(aminocarbonyl)-",C[C@H](NC(N)=O)C(O)=O,-0.7845,G1,-0.8721999999999999,29.8169,2.0,3.0,5.0,2.0,0.0,0.0,0.0,0.0,92.42,51.84110820392367,3.632432151939845
"phenol, 3-(1,1-dimethylethyl)-",CC(C)(C)c1cccc(O)c1,-1.8614,G1,2.689700000000001,46.80680000000004,1.0,1.0,1.0,0.0,1.0,0.0,0.0,1.0,20.23,67.6854053292794,3.059901692217984
3-bromo-1-nitrobenzene,[O-][N+](=O)c1cccc(Br)c1,-1.3054,G1,2.3573000000000004,40.79640000000001,2.0,0.0,4.0,1.0,1.0,0.0,0.0,1.0,43.14,65.95192644763813,3.069899265759275
"1-propene-1,2,3-tricarboxylic acid, (z)-",OC(=O)C\C(=C/C(O)=O)C(O)=O,0.3612,G3,-0.4433000000000001,35.60739999999999,3.0,3.0,6.0,4.0,0.0,0.0,0.0,0.0,111.9,66.74162612434765,4.552105266699234