Name,SMILES,Solubility,Group,MolLogP,MolMR,NumHAcceptors,NumHDonors,NumHeteroatoms,NumRotatableBonds,NumAromaticRings,NumSaturatedRings,NumAliphaticRings,RingCount,TPSA,LabuteASA,BalabanJ
3-pentyloxan-4-yl acetate,CCCCCC1COCCC1OC(C)=O,-2.9987958883,G1,2.5349000000000004,58.62200000000005,3.0,0.0,3.0,5.0,0.0,1.0,1.0,1.0,35.53,92.13639569172052,2.3181849864239865
"4-[(E)-2-phenyldiazen-1-yl]benzene-1,3-diamine",Nc1ccc(N=Nc2ccccc2)c(N)c1,-2.9976655605,G1,3.2664,65.88480000000003,4.0,2.0,4.0,2.0,2.0,0.0,0.0,2.0,76.75999999999999,93.6150565640755,2.242151986538292
2-tert-Butyl-4-methoxyphenol,COc1ccc(O)c(c1)C(C)(C)C,-2.9274884417,G1,2.6983000000000006,53.35880000000004,2.0,1.0,2.0,1.0,1.0,0.0,0.0,1.0,29.46,79.16389267318289,3.191702676530764
4-piperidin-4-ylmorpholine,C1CC(CCN1)N2CCOCC2,-2.9027228224,G1,0.0705999999999997,48.28370000000002,3.0,1.0,3.0,1.0,0.0,2.0,2.0,2.0,24.5,74.07036671926224,1.7997325191361424
triethoxy(2-methylpropyl)silane,CCO[Si](CC(C)C)(OCC)OCC,-3.016846171,G3,2.690800000000001,60.27700000000005,3.0,0.0,4.0,8.0,0.0,0.0,0.0,0.0,27.69,89.11533857802152,4.368125379625989
"3,4-dihydroxy-5-nitrobenzaldehyde",Oc1cc(C=O)cc(c1O)[N+]([O-])=O,-1.937833911,G1,0.8184999999999998,41.81350000000001,5.0,2.0,6.0,2.0,1.0,0.0,0.0,1.0,100.67,72.19931056082916,3.408865923969361
ethyl 2-methyl-2-phenylpropanoate,CCOC(=O)C(C)(C)c1ccccc1,-3.045838317,G1,2.5273000000000003,56.10100000000004,2.0,0.0,2.0,3.0,1.0,0.0,0.0,1.0,26.3,84.89612313542726,2.901578702413373
4-methyl-2-nitroaniline,Cc1ccc(N)c(c1)[N+]([O-])=O,-1.860061225,G1,1.48542,42.24580000000001,3.0,1.0,4.0,1.0,1.0,0.0,0.0,1.0,69.16,63.789211653406085,3.232208870305491
dithioxomethane,S=C=S,-1.5594220963,G5,1.0181,20.189,2.0,0.0,2.0,0.0,0.0,0.0,0.0,0.0,0.0,29.456811522239303,3.2659863237109046
methyl benzoate,COC(=O)c1ccccc1,-1.8117983509,G3,1.4732,37.781500000000015,2.0,0.0,2.0,1.0,1.0,0.0,0.0,1.0,26.3,59.43635467784082,2.8526279288191434
"1,1-dimethoxyoctane",CCCCCCCC(OC)OC,-2.9180054187,G1,2.965800000000001,51.18200000000004,2.0,0.0,2.0,8.0,0.0,0.0,0.0,0.0,18.46,76.25082051641277,3.062399016717871
"1,4,7,10-tetrazacyclododecane",C1CNCCNCCNCCN1,-0.0310204156,G1,-1.6415999999999973,51.47880000000002,4.0,4.0,4.0,0.0,0.0,1.0,1.0,1.0,48.12,74.48746340950875,2.0000000000000004
undec-10-enal,C=CCCCCCCCCC=O,-3.8931862,G1,3.4921000000000024,53.197000000000045,1.0,0.0,1.0,9.0,0.0,0.0,0.0,0.0,17.07,75.86059123965516,2.8073211053704865
2-[4-(2-methylpropyl)phenyl]propanoic acid,CC(C)Cc1ccc(cc1)C(C)C(O)=O,-3.992248354700001,G5,3.073200000000001,61.03480000000004,1.0,1.0,2.0,4.0,1.0,0.0,0.0,1.0,37.3,90.941753772513,2.7590371332701524
sodium perchlorate,[Na+].[O-][Cl](=O)(=O)=O,-1.7665284956,G1,-7.752000000000001,0.0,4.0,0.0,6.0,0.0,0.0,0.0,0.0,0.0,92.24,58.42530181190156,0.0
"N-ethyl-N'-isopropyl-6-(methylsulfanyl)-1,3,5-triazine-2,4-diamine",CCNc1nc(NC(C)C)nc(SC)n1,-3.0470399572000004,G5,1.8456,64.53040000000003,6.0,2.0,6.0,5.0,1.0,0.0,0.0,1.0,62.73,94.50283414129746,2.89174703245098
1-(3-methoxyphenyl)ethan-1-one,COc1cccc(c1)C(C)=O,-1.8691073865,G3,1.8978,42.99850000000002,2.0,0.0,2.0,2.0,1.0,0.0,0.0,1.0,26.3,65.80129679223744,3.0058892189147386
1H-benzimidazole,[nH]1cnc2ccccc12,-1.769197233,G1,1.5629,36.09370000000001,1.0,1.0,2.0,0.0,2.0,0.0,0.0,2.0,28.68,52.54187605319297,2.954659790285104
cyanuric acid,O=C1NC(=O)NC(=O)N1,-1.8076460763,G5,-2.2485000000000004,28.3041,3.0,3.0,6.0,0.0,1.0,0.0,0.0,1.0,98.57999999999998,47.57491336246779,3.7180092596903305
"1-(3-chloropropyl)-2,3-dihydro-1H-1,3-benzodiazol-2-one",ClCCCN1C(=O)Nc2ccccc12,-3.0203942687,G1,1.9585,57.89570000000002,2.0,1.0,4.0,3.0,2.0,0.0,0.0,2.0,37.79,86.31146220990358,2.510480458264342
2-chloropyridine,Clc1ccccn1,-0.7541456686,G1,1.7349999999999997,29.247,1.0,0.0,2.0,0.0,1.0,0.0,0.0,1.0,12.89,46.95431732732515,3.0214653097240864
"2,5-dichlorophenol",Oc1cc(Cl)ccc1Cl,-1.9111656018,G1,2.699,38.12680000000001,1.0,1.0,3.0,0.0,1.0,0.0,0.0,1.0,20.23,62.83216932545633,3.171678030440916
"1,10-bis(2-ethylhexyl) decanedioate",CCCCC(CC)COC(=O)CCCCCCCCC(=O)OCC(CC)CCCC,-3.3290743264,G1,7.626400000000009,125.46600000000012,4.0,0.0,4.0,21.0,0.0,0.0,0.0,0.0,52.60000000000001,186.41293854684608,3.555746631440125
4-amino-5-chloro-N-[2-(diethylamino)ethyl]-2-methoxybenzamide,[H+].[Cl-].CCN(CC)CCNC(=O)c1cc(Cl)c(N)cc1OC,-3.2256490876,G1,-0.8810999999999976,83.64960000000004,4.0,2.0,7.0,7.0,1.0,0.0,0.0,1.0,67.59,138.21675176397125,0.0
arsine,[As],-2.5735793664,G4,-0.3808,5.754,0.0,0.0,1.0,0.0,0.0,0.0,0.0,0.0,0.0,18.804693978445496,0.0
Spironolactone intermediate,C[C@]12CCC(=O)C=C1CC[C@@H]3[C@@H]2CC[C@@]4(C)[C@H]3CC[C@@]45CCC(=O)O5,-4.2250037793,G1,4.5941000000000045,94.76700000000008,3.0,0.0,3.0,0.0,0.0,4.0,5.0,5.0,43.370000000000005,150.12086605992232,1.4903403263319668
"2,2-bis({[(2-methylprop-2-enoyl)oxy]methyl})butyl 2-methylprop-2-enoate",CCC(COC(=O)C(C)=C)(COC(=O)C(C)=C)COC(=O)C(C)=C,-4.2262342969,G3,2.740700000000001,90.04300000000003,6.0,0.0,6.0,10.0,0.0,0.0,0.0,0.0,78.9,142.6996598646711,5.106512542083464
3-methyl-4-propan-2-ylphenol,CC(C)c1ccc(O)cc1C,-2.854511354,G1,2.824020000000001,46.93280000000003,1.0,1.0,1.0,1.0,1.0,0.0,0.0,1.0,20.23,67.6854053292794,3.092719758380193
1-Isopropyl-2-methoxy-4-methylcyclohexane,COC1CC(C)CCC1C(C)C,-3.9301744515,G1,3.093600000000002,52.14000000000004,1.0,0.0,1.0,2.0,0.0,1.0,1.0,1.0,9.23,76.49638624777327,2.501180984372024
"3,7,7-trimethylbicyclo[4.1.0]hept-3-ene",CC1=CCC2C(C1)C2(C)C,-4.6704052705,G5,2.9987000000000013,43.75200000000002,0.0,0.0,0.0,0.0,0.0,1.0,2.0,2.0,0.0,63.322464718156304,2.1301442252099365
(4Z)-cyclopentadec-4-en-1-one,O=C1CCCCCCCCCC\C=C/CC1,-4.8831871131,G1,4.806500000000004,69.55100000000004,1.0,0.0,1.0,0.0,0.0,0.0,1.0,1.0,17.07,100.31452854371236,2.2025318710991564
oxozinc,O=[Zn],-4.448167714599999,G1,-0.1213,0.6865,1.0,0.0,2.0,0.0,0.0,0.0,0.0,0.0,17.07,22.60496136211111,2.0
ditolyl ether,Cc1ccccc1Oc2ccccc2C,-4.8439277143,G1,4.095740000000003,62.43200000000004,1.0,0.0,1.0,2.0,2.0,0.0,0.0,2.0,9.23,90.33192678386108,2.3021843604815557
1-(propan-2-yl)naphthalene; 2-(propan-2-yl)naphthalene,CC(C)c1cccc2ccccc12,-4.7823935551,G1,3.9632000000000014,58.03700000000004,0.0,0.0,0.0,1.0,2.0,0.0,0.0,2.0,0.0,79.20789399442198,2.756733762067337
2-(dimethylamino)-2-[(4-methylphenyl)methyl]-1-[4-(morpholin-4-yl)phenyl]butan-1-one,CCC(Cc1ccc(C)cc1)(N(C)C)C(=O)c2ccc(cc2)N3CCOCC3,-5.1332331523,G5,3.9674200000000033,115.39650000000006,4.0,0.0,4.0,7.0,2.0,1.0,1.0,3.0,32.78,168.65670621474848,1.848556021568384
4-methoxy-3-nitro-N-phenylbenzamide,COc1ccc(cc1[N+]([O-])=O)C(=O)Nc2ccccc2,-4.9878258088,G1,2.855700000000001,74.04360000000003,4.0,1.0,6.0,4.0,2.0,0.0,0.0,2.0,81.47,114.69628679001272,2.2656881588816344
oxostibanyl stibinate,[O--].[O--].[O--].[Sb+3].[Sb+3],-5.0237548039,G4,-1.118,13.5675,0.0,0.0,5.0,0.0,0.0,0.0,0.0,0.0,85.5,64.95184377673542,-0.0
"1,3,5-triazinane-2,4,6-trione; 1,3,5-triazine-2,4,6-triamine",Nc1nc(N)nc(N)n1.O=C2NC(=O)NC(=O)N2,-4.9755135023,G5,-3.630300000000001,61.36829999999996,9.0,6.0,12.0,0.0,2.0,0.0,0.0,2.0,215.30999999999997,97.31645475593874,1.7999999759722224e-07
trizinc(2+) ion diphosphate,[Zn++].[Zn++].[Zn++].[O-][P]([O-])([O-])=O.[O-][P]([O-])([O-])=O,-5.1553472856,G1,-5.656700000000001,15.213,8.0,0.0,13.0,0.0,0.0,0.0,0.0,0.0,172.5,111.894748056783,-2.666666650625e-08
1-(4-chlorophenyl)-2-nitrobenzene,[O-][N+](=O)c1ccccc1c2ccc(Cl)cc2,-4.9372094561,G1,3.915200000000002,63.54240000000003,2.0,0.0,4.0,2.0,2.0,0.0,0.0,2.0,43.14,97.44473927494246,2.5516750911466346
"1-(2,3,8,8-tetramethyl-1,3,4,5,6,7-hexahydronaphthalen-2-yl)ethanone",CC1CC2=C(CC1(C)C(C)=O)C(C)(C)CCC2,-4.9417913147000005,G1,4.518300000000004,71.84400000000005,1.0,0.0,1.0,1.0,0.0,0.0,2.0,2.0,17.07,105.67363950457973,2.4030862204000023
Molybdenum 2-ethylhexanoate,[Mo].CCCCC(CC)C([O-])=O,-3.4351686053,G3,0.9502,38.313,2.0,0.0,3.0,5.0,0.0,0.0,0.0,0.0,40.13,82.63768977262689,0.0
"5-chloro-2-(2,4-dichlorophenoxy)aniline",Nc1cc(Cl)ccc1Oc2ccc(Cl)cc2Cl,-5.0452642864,G1,5.021300000000001,72.40040000000002,2.0,1.0,5.0,2.0,2.0,0.0,0.0,2.0,35.25,113.8517319327256,2.3122378354877973
dihexyl adipate,CCCCCCOC(=O)CCCCC(=O)OCCCCCC,-5.082600348500001,G1,4.7938000000000045,88.67000000000007,4.0,0.0,4.0,15.0,0.0,0.0,0.0,0.0,52.60000000000001,135.49340163167324,3.320703845047446
strontium 4-[(5-chloro-4-methyl-2-sulphonatophenyl)azo]-3-hydroxy-2-naphthoate (1:1),[Sr++].Cc1c(Cl)cc(cc1[S](O)(=O)=O)N=Nc2c([O-])c(cc3ccccc23)C([O-])=O,-5.3065828462,G2,2.5200200000000006,103.65810000000002,7.0,1.0,11.0,4.0,3.0,0.0,0.0,3.0,142.28,207.4167115567288,2.9999968670033558e-06
"2-(3,8-dimethyl-1,2,3,4,5,6,7,8-octahydroazulen-5-yl)propan-2-yl acetate",CC1CCC(CC2=C1CCC2C)C(C)(C)OC(C)=O,-5.022602512200001,G1,4.490800000000004,77.77400000000006,2.0,0.0,2.0,2.0,0.0,0.0,2.0,2.0,26.3,117.15212684848322,2.192632625102972
11-ethyl-5-methylpentadecanoic acid,CCCCC(CC)CCCCCC(C)CCCC(O)=O,-5.0561178371,G1,6.044300000000006,87.04180000000008,1.0,1.0,2.0,14.0,0.0,0.0,0.0,0.0,37.3,125.8990228248117,3.428311044912142
"3,7,11-trimethyldodec-1-yn-3-ol",CC(C)CCCC(C)CCCC(C)(O)C#C,-4.953059618999999,G3,4.003300000000003,71.16080000000005,1.0,1.0,1.0,8.0,0.0,0.0,0.0,0.0,20.23,101.64189977343734,3.51698182519572
gadolinium,[Gd],-4.7986506454,G1,0.0,0.0,0.0,0.0,1.0,0.0,0.0,0.0,0.0,0.0,0.0,39.553958411239385,0.0
"1,1,2-trifluoro-2-(pentafluoroethoxy)ethene",FC(F)=C(F)OC(F)(F)C(F)(F)F,-4.9542967929,G1,3.1932,22.437,1.0,0.0,9.0,2.0,0.0,0.0,0.0,0.0,9.23,65.58230279175189,4.628902366845496
"2,4,4-trimethylpent-1-ene",CC(=C)CC(C)(C)C,-4.688326948,G1,2.9987000000000013,38.886,0.0,0.0,0.0,1.0,0.0,0.0,0.0,0.0,0.0,52.60424279642154,3.5512529243669317
"N-phenylaniline; 2,4,4-trimethylpent-1-ene",CC(=C)CC(C)(C)C.N(c1ccccc1)c2ccccc2,-5.0876626154,G3,6.428900000000006,95.05270000000006,1.0,1.0,1.0,3.0,2.0,0.0,0.0,2.0,12.03,129.27412454568693,2.402884538194669e-07
aluminium(3+) ion magnesium(2+) ion sodium tris(oxosilanebis(olate)),[Na+].[Mg++].[Al+3].[O-][Si]([O-])=O.[O-][Si]([O-])=O.[O-][Si]([O-])=O,-5.1305146868,G1,-12.3904,30.8295,9.0,0.0,15.0,0.0,0.0,0.0,0.0,0.0,189.57,138.0615080164704,-1.8409090853305787e-08
"2,5-bis(tert-butylperoxy)-2,5-dimethylhex-3-yne",CC(C)(C)OOC(C)(C)C#CC(C)(C)OOC(C)(C)C,-5.1145685291000005,G1,4.040400000000004,79.78000000000006,4.0,0.0,4.0,4.0,0.0,0.0,0.0,0.0,36.92,123.52537968514204,4.5971346167827045
2-butyloctanoic acid,CCCCCCC(CCCC)C(O)=O,-4.959305966700001,G1,3.847800000000002,59.40980000000005,1.0,1.0,2.0,9.0,0.0,0.0,0.0,0.0,37.3,87.70937013843204,3.569818821499124
2-ethylhexyl 4-aminobenzoate,CCCCC(CC)COC(=O)c1ccc(N)cc1,-5.0543936585,G1,3.642000000000002,74.44290000000004,3.0,1.0,3.0,7.0,1.0,0.0,0.0,1.0,52.32,109.3308401756298,2.417004050753797
"butyl 4,4-bis(tert-butylperoxy)pentanoate",CCCCOC(=O)CCC(C)(OOC(C)(C)C)OOC(C)(C)C,-5.1898813447,G1,4.319500000000004,87.35200000000007,6.0,0.0,6.0,10.0,0.0,0.0,0.0,0.0,63.22000000000001,140.16616373723008,4.546749602306872
"2,3-dichloro-1,4-naphthoquinone",ClC1=C(Cl)C(=O)c2ccccc2C1=O,-5.0237764060000005,G4,2.754800000000001,53.83500000000001,2.0,0.0,4.0,0.0,1.0,0.0,1.0,2.0,34.14,90.1253140452208,2.7318273616973707
3-hydroxy-N-(2-methoxyphenyl)naphthalene-2-carboxamide,[Na+].COc1ccccc1NC(=O)c2cc3ccccc3cc2[O-],-5.1765101856,G1,0.1783000000000003,84.34120000000003,3.0,1.0,5.0,3.0,3.0,0.0,0.0,3.0,61.39,155.93260897415604,1.91999855226779e-06
oxocadmium,O=[Cd],-4.7863829333,G1,-0.1213,0.6865,1.0,0.0,2.0,0.0,0.0,0.0,0.0,0.0,17.07,28.82298984976956,2.0
1-chloro-2-(trichloromethyl)benzene,Clc1ccccc1C(Cl)(Cl)Cl,-5.0439330965,G1,4.1667000000000005,50.689000000000014,0.0,0.0,4.0,0.0,1.0,0.0,0.0,1.0,0.0,85.00941014142025,3.1411091905317954
decyl acetate,CCCCCCCCCCOC(C)=O,-4.9857583021,G1,3.6902000000000026,59.24300000000005,2.0,0.0,2.0,9.0,0.0,0.0,0.0,0.0,26.3,88.02868161574291,2.884064614706359
2-{methyl[(nonafluorobutyl)sulfonyl]amino}ethyl acrylate,CN(CCOC(=O)C=C)[S](=O)(=O)C(F)(F)C(F)(F)C(F)(F)C(F)(F)F,-5.3087460931,G1,2.4029000000000007,63.6018,4.0,0.0,15.0,8.0,0.0,0.0,0.0,0.0,63.68,134.61962254371994,5.6605655299897
2-phenylhexanenitrile,CCCCC(C#N)c1ccccc1,-3.6623544532,G1,3.4839800000000025,54.32100000000004,1.0,0.0,1.0,4.0,1.0,0.0,0.0,1.0,23.79,80.01363548734534,2.6330200426331443
"1,1,1-TRICHLORO-2,2,2-TRIFLUOROETHANE",FC(F)(F)C(Cl)(Cl)Cl,-4.3331923932,G1,2.9189,26.345,0.0,0.0,6.0,0.0,0.0,0.0,0.0,0.0,0.0,58.51059803164989,4.020391543176799
2-methyldodecan-1-ol,CC(C)CCCCCCCCCCO,-5.0007940326,G5,4.145600000000004,63.47680000000006,1.0,1.0,1.0,10.0,0.0,0.0,0.0,0.0,20.23,89.9127901527849,2.8519171767291915
N-(2-ethoxyphenyl)-3-hydroxynaphthalene-2-carboxamide,CCOc1ccccc1NC(=O)c2cc3ccccc3cc2O,-5.1866018088,G1,4.196400000000003,91.17700000000004,3.0,2.0,4.0,4.0,3.0,0.0,0.0,3.0,58.56,133.88415146584074,1.9332943867817551
calcium oxozirconium,[CaH2].O=[Zr],-4.8730792601,G4,-1.0375,9.2305,1.0,0.0,3.0,0.0,0.0,0.0,0.0,0.0,17.07,64.07040778384288,0.0
diisopropyl sebacate,CC(C)OC(=O)CCCCCCCCC(=O)OC(C)C,-5.1559612143,G1,4.010400000000003,79.39200000000007,4.0,0.0,4.0,11.0,0.0,0.0,0.0,0.0,52.60000000000001,122.76351740287996,3.2866148880817034
hexyl 2-hydroxybenzoate,CCCCCCOC(=O)c1ccccc1O,-5.0458782076,G1,3.129300000000002,62.53130000000005,3.0,1.0,3.0,6.0,1.0,0.0,0.0,1.0,46.53,96.0552990020199,2.3297758132802646
"octadecane-1,12-diol",CCCCCCC(O)CCCCCCCCCCCO,-5.1560946306,G3,5.211000000000006,88.02160000000008,2.0,2.0,2.0,16.0,0.0,0.0,0.0,0.0,40.46,126.53173447696396,3.071711360094435
"tetrachlorocyclohexa-2,5-diene-1,4-dione",ClC1=C(Cl)C(=O)C(=C(Cl)C1=O)Cl,-5.0896861436,G2,2.5166,47.478,2.0,0.0,6.0,0.0,0.0,0.0,1.0,1.0,34.14,87.71503348952906,3.3164522117132207
potassium hexadecyl hydrogen phosphate,[K+].CCCCCCCCCCCCCCCCO[P](O)([O-])=O,-3.2602593536,G3,1.9489999999999983,86.08930000000007,3.0,1.0,6.0,16.0,0.0,0.0,0.0,0.0,69.59,179.38757084751526,0.0
4-[(2-chloroethyl)(ethyl)amino]benzaldehyde,CCN(CCCl)c1ccc(C=O)cc1,-3.0334483747000003,G1,2.5642000000000005,60.43650000000003,2.0,0.0,3.0,5.0,1.0,0.0,0.0,1.0,20.31,89.48073568860883,2.7737802191828718
3-methylbutyl propanoate,CCC(=O)OCCC(C)C,-2.8700736410000003,G1,1.9857,40.705000000000005,2.0,0.0,2.0,4.0,0.0,0.0,0.0,0.0,26.3,62.568913158156434,3.11596431027222
"(2E)-1-(2,6,6-trimethylcyclohex-1-en-1-yl)but-2-en-1-one",CC(=C)[C@@H]1C[C@@H](CC[C@@]1(C)C=C)C(C)(C)O,-3.0592783722,G1,3.9420000000000033,70.24680000000005,1.0,1.0,1.0,3.0,0.0,1.0,1.0,1.0,20.23,100.25763716368031,2.895124806362788
oct-1-en-3-ol,CCCCCC(O)C=C,-1.8219317146,G1,2.1136,40.3458,1.0,1.0,1.0,5.0,0.0,0.0,0.0,0.0,20.23,57.39847654861755,2.96362233860398
hexafluoroprop-1-ene,FC(F)=C(F)C(F)(F)F,-2.8887982833,G5,2.6263,16.405,0.0,0.0,6.0,0.0,0.0,0.0,0.0,0.0,0.0,45.77274464199592,4.399515870465618
"(8R,9S,13S,14S,17S)-13-ethyl-3-methoxy-6,7,8,9,11,12,14,15,16,17-decahydrocyclopenta[a]phenanthren-17-ol",CC[C@]12CC[C@H]3[C@@H](CCc4cc(OC)ccc34)[C@@H]1CC[C@@H]2O,-4.875700653,G1,4.302300000000004,88.23480000000006,2.0,1.0,2.0,2.0,1.0,2.0,3.0,4.0,29.46,133.43087824216468,1.6847772619118833
4-[2-(4-hydroxycyclohexyl)propan-2-yl]cyclohexan-1-ol,CC(C)(C1CCC(O)CC1)C2CCC(O)CC2,-3.0976097488,G1,3.1148000000000016,69.71060000000006,2.0,2.0,2.0,2.0,0.0,2.0,2.0,2.0,40.46,105.42524582671564,1.927589986255667
"9-[2-(2-methoxyethoxy)ethoxy]-9-[3-(oxiran-2-ylmethoxy)propyl]-2,5,8,10,13,16-hexaoxa-9-silaheptadecane",COCCOCCO[Si](CCCOCC1CO1)(OCCOCCOC)OCCOCCOC,1.5823133383,G1,0.7696000000000052,121.6780000000001,11.0,0.0,12.0,27.0,0.0,1.0,1.0,1.0,104.83000000000004,199.0322325189101,2.515397303134452
disodium 6-hydroxy-5-[(E)-2-(4-sulfonatophenyl)diazen-1-yl]naphthalene-2-sulfonate,[Na+].[Na+].[O-][S](=O)(=O)c1ccc(N\N=C2\C(=O)C=Cc3cc(ccc23)[S]([O-])(=O)=O)cc1,-1.3767469152,G1,-5.0850999999999935,93.0111,9.0,1.0,13.0,4.0,2.0,0.0,1.0,3.0,155.86,210.91374565268603,2.10249881994235e-06
"1-chloro-1,1-difluoroethane",CC(F)(F)Cl,-1.7233908536000002,G3,1.8379,16.474,0.0,0.0,3.0,0.0,0.0,0.0,0.0,0.0,0.0,33.7385301749603,3.0237157840738176
3-(methoxycarbonyl)-5-nitrobenzoic acid,COC(=O)c1cc(cc(c1)[N+]([O-])=O)C(O)=O,-2.0737299237,G1,1.0796,51.39520000000001,5.0,1.0,7.0,3.0,1.0,0.0,0.0,1.0,106.74,89.41002836697703,3.347986893150782
difluoromethane,FCF,-1.4374417919999998,G5,0.8829,7.083,0.0,0.0,2.0,0.0,0.0,0.0,0.0,0.0,0.0,17.07032183368202,1.6329931618554523
2-[(1Z)-({2-[(E)-[(2-hydroxyphenyl)methylidene]amino]propyl}imino)methyl]phenol,CC(CN\C=C/1C=CC=CC1=O)N\C=C/2C=CC=CC2=O,-3.172023424,G1,1.7121,83.34040000000002,4.0,2.0,4.0,5.0,0.0,0.0,2.0,2.0,58.2,123.8518129253149,1.789712519488381
4-[4-(propan-2-yloxy)benzenesulfonyl]phenol,CC(C)Oc1ccc(cc1)[S](=O)(=O)c2ccc(O)cc2,-4.1714457851,G1,3.0122000000000018,75.76460000000004,4.0,1.0,5.0,4.0,2.0,0.0,0.0,2.0,63.60000000000001,118.11650103224032,2.321761172431244
tetramethylsilane,C[Si](C)(C)C,-3.6533405182,G1,1.9544,29.209999999999983,0.0,0.0,1.0,0.0,0.0,0.0,0.0,0.0,0.0,35.21506461639648,3.0237157840738176
"3,5,5-trimethylhexyl acetate",CC(CCOC(C)=O)CC(C)(C)C,-3.9891678317,G1,3.0119000000000016,54.48600000000005,2.0,0.0,2.0,4.0,0.0,0.0,0.0,0.0,26.3,81.66373950134626,3.5176957405481564
"benzene-1,4-dicarbonyl dichloride",ClC(=O)c1ccc(cc1)C(Cl)=O,-4.0287937791,G3,2.4446000000000003,46.80900000000001,2.0,0.0,4.0,2.0,1.0,0.0,0.0,1.0,34.14,79.09086400214105,3.0061498337295465
oxolan-2-ylmethyl 2-methylprop-2-enoate,CC(=C)C(=O)OCC1CCCO1,-0.9524550039,G1,1.2847,44.74700000000002,3.0,0.0,3.0,3.0,0.0,1.0,1.0,1.0,35.53,72.35196631634645,2.157940844010577
"estr-4-ene-3,17-dione",C[C@]12CC[C@H]3[C@@H](CCC4=CC(=O)CC[C@H]34)[C@@H]1CCC2=O,-3.1565006621,G4,3.697300000000002,77.10000000000004,2.0,0.0,2.0,0.0,0.0,3.0,4.0,4.0,34.14,120.55338352635826,1.6461886291959569
benzyl 2-methylprop-2-enoate,CC(=C)C(=O)OCc1ccccc1,-2.9682045412,G1,2.3059000000000003,51.05200000000003,2.0,0.0,2.0,3.0,1.0,0.0,0.0,1.0,26.3,77.8415779888464,2.442561320452449
diethyl carbonate,CCOC(=O)OCC,-0.7982097075,G1,1.1794,28.647999999999985,3.0,0.0,3.0,2.0,0.0,0.0,0.0,0.0,35.53,48.5876320444735,3.0551722039096187
"(2E)-1-(2,6,6-trimethylcyclohexa-1,3-dien-1-yl)but-2-en-1-one",C/C=C/C(=O)C1=C(C)C=CCC1(C)C,-3.0052489876,G1,3.4342000000000024,60.05900000000003,1.0,0.0,1.0,2.0,0.0,0.0,1.0,1.0,17.07,86.20543825055061,3.137247677628073
"2,4-dichloro-1-nitrobenzene",[O-][N+](=O)c1ccc(Cl)cc1Cl,-3.0091456414,G4,2.9016,43.11640000000001,2.0,0.0,5.0,1.0,1.0,0.0,0.0,1.0,43.14,72.6909112957601,3.1960696621259195
(5S)-2-methyl-5-(prop-1-en-2-yl)cyclohex-2-en-1-one,CC(=C)[C@H]1CC=C(C)C(=O)C1,-1.9026536597,G1,2.4879000000000007,46.30200000000003,1.0,0.0,1.0,1.0,0.0,0.0,1.0,1.0,17.07,67.80021493954504,2.698294200312726
octylphosphonic acid,CCCCCCCC[P](O)(O)=O,-3.0148095518,G2,2.5246000000000013,50.28710000000003,1.0,2.0,4.0,7.0,0.0,0.0,0.0,0.0,57.53,74.3452537493457,3.0623984211130764
calcium dimagnesium(2+) ion tetrahydroxide oxidandiide,C[C@]12CCC(=O)C=C1CC[C@@H]3[C@@H]2CC[C@@]4(C)[C@H]3C(O)CC4=O,-2.2130969417,G3,3.058200000000001,83.10680000000005,3.0,1.0,3.0,0.0,0.0,3.0,4.0,4.0,54.37,131.71255939295088,1.726554158978616
"4-chloro-2,5-dimethoxyaniline",COc1cc(Cl)c(OC)cc1N,-3.0061212915,G1,1.9394,48.96840000000002,3.0,1.0,4.0,2.0,1.0,0.0,0.0,1.0,44.48,76.03153473119833,3.164874105084725
plumbane,[Pb],-3.0492180227,G1,-0.3808,5.754,0.0,0.0,1.0,0.0,0.0,0.0,0.0,0.0,0.0,27.651029333465317,0.0
3-methylbutyl butanoate,CCCC(=O)OCCC(C)C,-2.9328521233,G1,2.375800000000001,45.32200000000002,2.0,0.0,2.0,5.0,0.0,0.0,0.0,0.0,26.3,68.93385527255305,3.1727643828864744
3-(cyclohexylamino)propane-1-sulfonic acid,O[S](=O)(=O)CCCNC1CCCCC1,-3.0802067631,G1,1.1865999999999997,55.90830000000004,3.0,2.0,5.0,5.0,0.0,1.0,1.0,1.0,66.39999999999999,85.83145498312186,2.029093273189151
(2E)-2-(phenylmethylidene)heptanal,CCCCC/C(C=O)=C/c1ccccc1,-3.0466584175,G1,3.8492000000000033,64.62500000000004,1.0,0.0,1.0,6.0,1.0,0.0,0.0,1.0,17.07,91.82285910252936,2.5762090172546523
1-bromo-3-chloropropane,ClCCCBr,-1.9401514115,G5,2.0102,29.130999999999997,0.0,0.0,2.0,2.0,0.0,0.0,0.0,0.0,0.0,45.6399490891458,2.19060968716425