Name,SMILES,Solubility,Group,MolLogP,MolMR,NumHAcceptors,NumHDonors,NumHeteroatoms,NumRotatableBonds,NumAromaticRings,NumSaturatedRings,NumAliphaticRings,RingCount,TPSA,LabuteASA,BalabanJ
"cyclopentanecarbonitrile, 2-oxo-",O=C1CCCC1C#N,-0.3567,G1,0.87918,27.96099999999999,2.0,0.0,2.0,0.0,0.0,1.0,1.0,1.0,40.86,48.11223222779584,2.579519093745178
"carbamic acid, diethylthio-, s-ethyl ester",CCSC(=O)N(CC)CC,-1.6917,G1,2.2013,46.44900000000003,2.0,0.0,3.0,3.0,0.0,0.0,0.0,0.0,20.31,66.97336950982157,3.649620758476938
"phosphonic acid, phenyl, di-2-propenyl ester",C=CCO[P](=O)(OCC=C)c1ccccc1,-2.8999,G1,2.910200000000001,65.98050000000003,3.0,0.0,4.0,7.0,1.0,0.0,0.0,1.0,35.53,95.93188061686972,2.894366273611782
"phosphinic acid, dibutyl-, butyl ester",CCCCO[P](=O)(CCCC)CCCC,-1.7166,G1,4.6814000000000044,68.01650000000006,2.0,0.0,3.0,10.0,0.0,0.0,0.0,0.0,26.3,95.24342967391974,3.958342451368509
"3,5-dichloro-2,6-dimethyl-4-pyridinol",CC1=C(Cl)C(=O)C(=C(C)N1)Cl,-4.2834,G1,2.29854,46.556700000000006,1.0,1.0,4.0,0.0,1.0,0.0,0.0,1.0,32.86,74.1489898830438,3.592824831592955
"benzaldehyde, 3-bromo-4-hydroxy-",Oc1ccc(C=O)cc1Br,-2.1794,G1,1.9672,41.19430000000001,2.0,1.0,3.0,1.0,1.0,0.0,0.0,1.0,37.3,66.61964869177471,3.158901732156222
"biphenyl, 3,4'-dichloro-",Clc1ccc(cc1)c2cccc(Cl)c2,-6.4001,G1,4.660400000000002,61.898000000000025,0.0,0.0,2.0,1.0,2.0,0.0,0.0,2.0,0.0,93.09502977932434,2.4434555043419293
"2,3-dichlorophenoxyacetic acid",OC(=O)COc1cccc(Cl)c1Cl,-2.8097,G1,2.4568000000000003,49.59280000000002,2.0,1.0,5.0,3.0,1.0,0.0,0.0,1.0,46.53,84.83712088380017,2.7691156964614927
"propanoic acid, 2-(acetyloxy)-, ethyl ester",CCOC(=O)C(C)OC(C)=O,-0.6994,G1,0.5010999999999999,37.861,4.0,0.0,4.0,3.0,0.0,0.0,0.0,0.0,52.6,65.47903837331049,3.7262510867304592
"thiocyanic acid, 4-aminophenyl ester",Nc1ccc(SC#N)cc1,-2.6015,G1,1.84198,42.32440000000001,3.0,1.0,3.0,1.0,1.0,0.0,0.0,1.0,49.81,63.65192563774024,2.8143225241794605
"1h-purin-2-amine, 6-(trifluoromethyl)-",Nc1nc2nc[nH]c2c(n1)C(F)(F)F,-3.1346,G1,0.9539,41.09809999999999,4.0,2.0,8.0,0.0,2.0,0.0,0.0,2.0,80.48,75.18261103527402,2.796386344144949
ipatone,CCN(CC)c1nc(NC(C)C)nc(OC)n1,-4.888999999999999,G1,1.5466999999999995,68.69870000000004,6.0,1.0,6.0,6.0,1.0,0.0,0.0,1.0,63.17,102.43312506082763,3.0341474353239093
norazine,CNc1nc(Cl)nc(NC(C)C)n1,-2.8896,G1,1.3869999999999998,53.142400000000016,5.0,2.0,6.0,3.0,1.0,0.0,0.0,1.0,62.73,81.95310611402068,2.878054283327965
4-formyl-2-nitrophenol,Oc1ccc(C=O)cc1[N+]([O-])=O,-2.9512,G1,1.1129,40.14870000000001,4.0,1.0,5.0,2.0,1.0,0.0,0.0,1.0,80.44,67.40507680863314,3.2541929918421286
2-bromo-1-chloropropane,CC(Br)CCl,-1.8476,G1,2.0086,29.108999999999995,0.0,0.0,2.0,1.0,0.0,0.0,0.0,0.0,0.0,45.6399490891458,2.5395388613593903
g-32292 (aratone),CNc1nc(NC(C)C)nc(OC)n1,-1.7509,G1,0.7421999999999997,54.684400000000025,6.0,2.0,6.0,4.0,1.0,0.0,0.0,1.0,71.96000000000001,83.12832723104248,2.9200182242358266
brompyrazone,NC1=C(Br)C(=O)N(N=C1)c2ccccc2,-3.124,G1,1.5772,61.9464,4.0,1.0,5.0,1.0,2.0,0.0,0.0,2.0,60.91,94.47517874515192,2.6602820094110218
"l-leucine, n-methyl-",CN[C@@H](CC(C)C)C(O)=O,-0.5146,G1,0.7050999999999998,39.938500000000005,2.0,2.0,3.0,4.0,0.0,0.0,0.0,0.0,49.33,61.434521750057,3.717319726022122
"dl-valine, n-acetyl-",CC(C)C(NC(C)=O)C(O)=O,-0.6325,G3,0.2316999999999998,40.0785,2.0,2.0,4.0,3.0,0.0,0.0,0.0,0.0,66.4,65.59604385010077,4.11529460833615
"1,6-heptadiene",C=CCCCC=C,-3.3396,G1,2.5287000000000006,34.24499999999999,0.0,0.0,0.0,4.0,0.0,0.0,0.0,0.0,0.0,45.54969764984068,2.679549206552144
"1,1,3-trimethylcyclohexane",CC1CCCC(C)(C)C1,-4.8532,G1,3.2227000000000023,41.413,0.0,0.0,0.0,0.0,0.0,1.0,1.0,1.0,0.0,58.65295678947317,2.410837013264412
"glycine, n-(2-cyanoethyl)-",OC(=O)CNCCC#N,0.3237,G1,-0.4257199999999999,30.73549999999999,3.0,2.0,4.0,4.0,0.0,0.0,0.0,0.0,73.12,53.09721720273252,2.937573526428243
dl-alloisoleucine,CC[C@@H](C)[C@H](N)C(O)=O,-0.3895,G1,0.4443999999999999,35.06619999999998,2.0,2.0,3.0,3.0,0.0,0.0,0.0,0.0,63.32,54.85960814906508,3.716136771182721
"1-butanone, 1-(4-fluorophenyl)-4-(4-hydroxy-4-ph",OC1(CCN(CCCC(=O)c2ccc(F)cc2)CC1)c3ccccc3,-4.1183,G2,3.7722000000000033,95.97730000000004,3.0,1.0,4.0,6.0,2.0,1.0,1.0,3.0,40.54,147.64827012697063,1.4355798819160093
"4,4-dimethyl-1-pentanol",CC(C)(C)CCCO,-1.5402,G3,1.805,35.77479999999999,1.0,1.0,1.0,2.0,0.0,0.0,0.0,0.0,20.23,51.723137466405205,3.111766194388426
"l-asparagine, n2-(aminocarbonyl)-",NC(=O)C[C@H](NC(N)=O)C(O)=O,-0.511,G1,-2.0167,37.9543,3.0,4.0,7.0,4.0,0.0,0.0,0.0,0.0,135.51000000000002,67.70746311537677,4.135982327213132
"benzamide, n-(3,4-dichlorophenyl)-n-[(dimethylam",CN(C)C(=O)N(c1ccc(Cl)c(Cl)c1)C(=O)c2ccccc2,-4.3238,G1,4.321800000000003,88.79650000000002,2.0,0.0,6.0,2.0,2.0,0.0,0.0,2.0,40.620000000000005,138.39750977740502,2.49315358790122
"urea, chloro-",NC(=O)NCl,0.3256,G1,-0.1914999999999999,18.5721,1.0,2.0,4.0,0.0,0.0,0.0,0.0,0.0,55.120000000000005,34.20546306792876,2.847378923087672
"glycine, n-(n-leucylglycyl)-",CC(C)C[C@H](N)C(=O)NCC(=O)NCC(O)=O,0.2124,G1,-1.3231999999999968,61.08560000000002,4.0,4.0,7.0,7.0,0.0,0.0,0.0,0.0,121.52,99.74214517395517,3.827406376406721
d-glycero-d-gulo-heptose,OCC(O)C(O)C(O)C(O)C(O)C=O,-0.3226,G1,-4.017899999999999,43.18380000000002,7.0,6.0,7.0,6.0,0.0,0.0,0.0,0.0,138.45000000000002,79.85582832742902,4.28978166597642
"benzoic acid, 2-hydroxy-5-(phenylazo)-",OC(=O)C1=C/C(C=CC1=O)=N/Nc2ccccc2,-3.0559,G1,1.6043999999999998,67.36550000000001,4.0,2.0,5.0,3.0,1.0,0.0,1.0,2.0,78.75999999999999,103.13355934436218,2.1687303253769925
"benzenebutanoic acid, 4-methoxy-¥-oxo-",COc1ccc(cc1)C(=O)CCC(O)=O,-1.0632,G1,1.7427,54.19430000000002,3.0,1.0,4.0,5.0,1.0,0.0,0.0,1.0,63.6,87.48693687327045,2.616933050569206
"butanoic acid, 2-[(aminoiminomethyl)amino]-",CCC(NC=NN)C(O)=O,-0.8608,G1,-0.6587999999999994,37.529899999999984,3.0,3.0,5.0,4.0,0.0,0.0,0.0,0.0,87.71000000000001,58.909986724371606,3.7138648911525936
"2,4,6-cycloheptatrien-1-one, 5-bromo-2-hydroxy-",OC1=CC=C(Br)C=CC1=O,-3.5629,G1,1.5148999999999997,42.07680000000001,2.0,1.0,3.0,0.0,1.0,0.0,0.0,1.0,37.3,66.26519413731032,3.42534558987266
"lactic acid, 2-methyl-, isobutyl ester",CC(C)COC(=O)C(C)(C)O,-0.7276,G1,0.9565,42.09480000000001,3.0,1.0,3.0,3.0,0.0,0.0,0.0,0.0,46.53,67.36314691035246,3.712763518924565
"morpholine, 4-(2-hydroxybenzoyl)-",Oc1ccccc1C(=O)N2CCOCC2,-1.7037,G1,0.8646000000000003,54.829300000000025,3.0,1.0,4.0,1.0,1.0,1.0,1.0,2.0,49.77,88.07941728990082,2.161313966098436
"2,3-dichloronitrobenzene",[O-][N+](=O)c1cccc(Cl)c1Cl,-3.4881,G3,2.901600000000001,43.11640000000001,2.0,0.0,5.0,1.0,1.0,0.0,0.0,1.0,43.14,72.6909112957601,3.2735808215375437
"propane, 1,3-dibromo-2,2-bis(bromomethyl)-",BrCC(CBr)(CBr)CBr,-5.3844,G1,3.5524000000000013,57.609000000000016,0.0,0.0,4.0,4.0,0.0,0.0,0.0,0.0,0.0,89.66920990798141,3.824684203207495
tetrapropyl thiopyrophosphorate,CCCO[P](=S)(OCCC)O[P](=S)(OCCC)OCCC,-4.1009,G1,5.158400000000005,94.62700000000008,7.0,0.0,9.0,14.0,0.0,0.0,0.0,0.0,46.150000000000006,139.0811966401526,4.902321546670488
"1,10-phenanthroline, 4,7-dimethyl-",Cc1ccnc2c1ccc3c(C)ccnc23,-3.9686,G1,3.399840000000002,66.51800000000003,2.0,0.0,2.0,0.0,3.0,0.0,0.0,3.0,25.78,93.9639123736536,2.6023578475972498
"peroxide, bis(1-oxopropyl)",CCC(=O)OOC(=O)CC,-0.9634,G1,0.8077999999999999,32.765999999999984,4.0,0.0,4.0,2.0,0.0,0.0,0.0,0.0,52.6,59.043391574652176,3.352921516464098
2-(p-chlorophenoxy)propionic acid,CC(Oc1ccc(Cl)cc1)C(O)=O,-2.1351,G1,2.1918999999999995,49.17780000000002,2.0,1.0,4.0,3.0,1.0,0.0,0.0,1.0,46.53,80.89879677131513,2.641763904889644
dimethylguanidine,CN(C)C(N)=N,-1.7306,G1,-0.5585299999999997,25.6011,1.0,2.0,3.0,0.0,0.0,0.0,0.0,0.0,53.11,37.254210623103646,3.2575861612334887
"1-naphthalenecarboxylic acid, 3,4-dihydro-",OC(=O)C1=CCCc2ccccc12,-2.7939,G1,2.1008,50.37580000000003,1.0,1.0,2.0,1.0,1.0,0.0,1.0,2.0,37.3,76.5164353580063,2.5325224086759315
d-glycero-l-gulo-heptitol,OCC(O)C(O)C(O)C(O)C(O)CO,0.3722,G1,-4.224499999999998,44.20560000000002,7.0,7.0,7.0,6.0,0.0,0.0,0.0,0.0,141.61,80.48853997958128,4.221713709086299
"2-cyclohexen-1-one, oxime, (e)-",O/N=C/1CCCC=C1,-0.7034,G1,1.5567,32.21249999999999,2.0,1.0,2.0,0.0,0.0,0.0,1.0,1.0,32.59,48.512122151633214,2.5621664007011264
"1-butene, 4-isothiocyanato-",C=CCCN=C=S,-2.391,G1,1.6653,34.707,2.0,0.0,2.0,3.0,0.0,0.0,0.0,0.0,12.36,48.76351918629672,2.972279667743398
"tyrosine, 3,5-dichloro-",N[C@@H](Cc1cc(Cl)c(O)c(Cl)c1)C(O)=O,-0.7959999999999999,G1,1.6533999999999998,57.44200000000001,3.0,3.0,6.0,3.0,1.0,0.0,0.0,1.0,83.55000000000001,96.22264221789864,2.9237270307423464
"2-chloro-4,6-diamino-s-triazine",Nc1nc(N)nc(Cl)n1,-2.3849,G1,-0.3106000000000001,33.6618,5.0,2.0,6.0,0.0,1.0,0.0,0.0,1.0,90.71,56.073394683243606,3.165670309917317
"propanamide, n,n'-1,2-ethanediylbis-",CCC(=O)NCCNC(=O)CC,0.3746,G1,0.0387999999999992,46.60140000000002,2.0,2.0,4.0,5.0,0.0,0.0,0.0,0.0,58.2,72.71661439590942,3.211729783466108
"o,p'-dde",Clc1ccc(cc1)C(=C(Cl)Cl)c2ccccc2Cl,-6.3563,G1,6.187900000000002,80.63200000000002,0.0,0.0,4.0,2.0,2.0,0.0,0.0,2.0,0.0,125.74184342969664,2.5901616570734314
"[1,2,5]selenadiazolo[3,4-d]pyrimidine-5,7(4h,6h)",CN1C(=O)N(C)c2n[se]nc2C1=O,-2.2994,G1,-1.9157999999999995,46.96000000000001,6.0,0.0,7.0,0.0,2.0,0.0,0.0,2.0,69.78,78.66202328449891,3.21185381303522
"2-furancarboxylic acid, 4-bromo-",OC(=O)c1occ(Br)c1,-1.1841,G1,1.7403,33.3673,2.0,1.0,4.0,1.0,1.0,0.0,0.0,1.0,50.44,59.41397795585155,2.977648531786832
piperalin,CC1CCCCN1CCCOC(=O)c2ccc(Cl)c(Cl)c2,-4.2178,G1,4.414700000000004,86.24750000000004,3.0,0.0,5.0,5.0,1.0,1.0,1.0,2.0,29.54,135.71642656345117,1.723722008589725
"quinoxaline, 5,6,7,8-tetrachloro-",Clc1c(Cl)c(Cl)c2nccnc2c1Cl,-5.428,G1,4.2434,59.578,2.0,0.0,6.0,0.0,2.0,0.0,0.0,2.0,25.78,99.76542852065188,3.021805296135276
"2,2,5-trimethylhexane",CC(C)CCC(C)(C)C,-5.0474,G1,3.468700000000003,43.52700000000001,0.0,0.0,0.0,2.0,0.0,0.0,0.0,0.0,0.0,59.6587879430024,3.2807108400137506
"carbamic acid, diethyl-, ethyl ester",CCOC(=O)N(CC)CC,-1.0651,G1,1.4847,39.943000000000005,2.0,0.0,3.0,3.0,0.0,0.0,0.0,0.0,29.54,61.963804713963206,3.649620758476938
"2,4,6-trihydroxybenzophenone",Oc1cc(O)c(c(O)c1)C(=O)c2ccccc2,-1.8708,G1,2.0343999999999998,61.31090000000003,4.0,3.0,4.0,2.0,2.0,0.0,0.0,2.0,77.75999999999999,97.39766279658942,2.521690657933588
"di-d-fructofuranose 1,2':2,1'-dianhydride",OC[C@H]1OC2(COC3(CO2)O[C@H](CO)[C@@H](O)[C@@H]3O)[C@@H](O)[C@@H]1O,-0.0058,G1,-4.348399999999995,65.31080000000004,10.0,6.0,10.0,2.0,0.0,3.0,3.0,3.0,158.3,124.95570425680816,1.7312996703803112
"sulfanilamide, n1-(5-isobutyl-1,3,4-thiadiazol-2",CC(C)Cc1sc(N[S](=O)(=O)c2ccc(N)cc2)nn1,-3.8226,G1,2.1196,80.11390000000002,6.0,2.0,8.0,5.0,2.0,0.0,0.0,2.0,97.97,121.64690735689253,2.1561421228361213
"2-amino-3,5-dibromo-n-cyclohexyl-n-methylbenzene",CN(Cc1cc(Br)cc(Br)c1N)C2CCCCC2,-1.9733,G1,4.558300000000004,84.59440000000004,2.0,1.0,4.0,3.0,1.0,1.0,1.0,2.0,29.26,126.1799284596394,2.079773280451332
chlorphenoxamide,OCCN(Cc1ccc(Oc2ccc(cc2)[N+]([O-])=O)cc1)C(=O)C(Cl)Cl,-5.1241,G1,3.511700000000002,97.60920000000002,5.0,1.0,9.0,8.0,2.0,0.0,0.0,2.0,92.91,159.40185082575724,2.02276670984657
"propanedioic acid, nonyl-",CCCCCCCCCC(C(O)=O)C(O)=O,-3.3016,G1,2.9125000000000005,61.37160000000004,2.0,2.0,4.0,10.0,0.0,0.0,0.0,0.0,74.6,96.66512599067184,3.4846981619629878
"2-cf3-4,5-dichlorobenzimidazole",FC(F)(F)c1[nH]c2ccc(Cl)c(Cl)c2n1,-3.5677,G1,3.8885,51.1157,1.0,1.0,7.0,0.0,2.0,0.0,0.0,2.0,28.68,92.0099568301316,2.716164445381658
reposal,CCC1(C(=O)NC(=O)NC1=O)C2=CC3CCC(C3)C2,-2.7696,G5,1.4952,67.93640000000002,3.0,2.0,5.0,2.0,0.0,2.0,3.0,3.0,75.27000000000001,111.36069268956088,2.008160336598171
"butanedioic acid, methyl-, (r)-",C[C@H](CC(O)=O)C(O)=O,0.6311,G1,0.1818,29.05259999999999,2.0,2.0,4.0,3.0,0.0,0.0,0.0,0.0,74.6,52.110531189895525,3.632432151939845
"d-gluconic acid, 2-amino-2-deoxy-",NC(C(O)C(O)C(O)CO)C(O)=O,-0.8590000000000001,G1,-3.5267000000000004,40.71740000000001,6.0,6.0,7.0,5.0,0.0,0.0,0.0,0.0,144.24,74.03654315784912,4.235100562818548
"benzeneethanamine, n-(phenylmethyl)-",C(Cc1ccccc1)NCc2ccccc2,-2.7229,G1,3.018900000000001,68.29470000000003,1.0,1.0,1.0,5.0,2.0,0.0,0.0,2.0,12.03,97.13318585235888,1.6982174709605096
4-ethylacetanilide,CCc1ccc(NC(C)=O)cc1,-2.1453,G1,2.2074,50.12370000000003,1.0,1.0,2.0,2.0,1.0,0.0,0.0,1.0,29.1,72.60255586073521,2.709147824373649
"undecanoic acid, 11-hydroxy-",OCCCCCCCCCCC([O-])=O,-2.7039,G1,1.2394999999999998,53.64580000000005,3.0,1.0,3.0,10.0,0.0,0.0,0.0,0.0,60.36,86.13866177623144,2.884064614706359
"spiro[benzofuran-2(3h), 1'-[2]cyclohexene]-3,4'-",COc1cc(OC)c2C(=O)C3(Oc2c1)C(C)CC(=O)C=C3OC,-3.699,G1,2.1569000000000003,81.11550000000003,6.0,0.0,6.0,3.0,1.0,0.0,2.0,3.0,71.06,133.521726156732,2.1985713585727407
"butanal, 3-ethoxy-2-oxo-",CCOC(C)C(=O)C=O,-0.1554,G1,0.1794,32.158999999999985,3.0,0.0,3.0,4.0,0.0,0.0,0.0,0.0,43.370000000000005,54.00055102940699,3.5787109648268176
chlorophacinone,Clc1ccc(cc1)C(C(=O)C2C(=O)c3ccccc3C2=O)c4ccccc4,-3.5738,G1,4.736400000000003,103.33700000000002,3.0,0.0,4.0,4.0,3.0,0.0,1.0,4.0,51.21,161.15230347709178,1.7945238050547323
5-methylchrysene,Cc1cc2ccccc2c3ccc4ccccc4c13,-6.5920000000000005,G1,5.454620000000004,83.69700000000006,0.0,0.0,0.0,0.0,4.0,0.0,0.0,4.0,0.0,111.8413388290992,2.3547447512611064
"5,6-dimethylchrysene",Cc1c(C)c2c3ccccc3ccc2c4ccccc14,-7.0109,G1,5.763040000000004,88.43400000000005,0.0,0.0,0.0,0.0,4.0,0.0,0.0,4.0,0.0,118.2062809434958,2.3923893547034303
7-ethylbenz(a)anthracene,CCc1c2ccccc2cc3c1ccc4ccccc34,-6.796,G3,5.708600000000004,88.33800000000006,0.0,0.0,0.0,1.0,4.0,0.0,0.0,4.0,0.0,118.2062809434958,2.3005272171141318
"1,3-benzenedisulfonamide",N[S](=O)(=O)c1cccc(c1)[S](N)(=O)=O,-2.1693,G1,-1.0185999999999995,49.18840000000001,4.0,2.0,8.0,2.0,1.0,0.0,0.0,1.0,120.32,81.63273629835255,3.436614784321693
"3,5-dimethylpyridine-n-oxide",Cc1cc(C)c[n+]([O-])c1,0.9095,G1,0.93684,34.876,1.0,0.0,2.0,0.0,1.0,0.0,0.0,1.0,26.94,54.339179067506,3.165670309917317
2-pyridinemethaneamine,NCc1ccccn1,0.966,G1,0.5403000000000001,32.1284,2.0,1.0,2.0,1.0,1.0,0.0,0.0,1.0,38.91,48.3558839118528,2.8320858350070908
4-pyridinemethaneamine,NCc1ccncc1,0.966,G1,0.5403000000000001,32.1284,2.0,1.0,2.0,1.0,1.0,0.0,0.0,1.0,38.91,48.3558839118528,2.8320858350070908
cyanthoate,CCO[P](=O)(OCC)SCC(=O)NC(C)(C)C#N,-0.6237,G1,2.3190800000000005,71.15120000000005,6.0,1.0,8.0,8.0,0.0,0.0,0.0,0.0,88.41999999999999,111.68941954636492,4.333509883249055
parathion-amino,CCO[P](=S)(OCC)Oc1ccc(N)cc1,-2.826,G1,2.945100000000001,69.01940000000002,5.0,1.0,6.0,6.0,1.0,0.0,0.0,1.0,53.71,100.95162606582974,2.748340736579641
fenclorim,Clc1cc(Cl)nc(n1)c2ccccc2,-4.9544,G1,3.450400000000002,57.48800000000002,2.0,0.0,4.0,1.0,2.0,0.0,0.0,2.0,25.78,91.5343257412174,2.521303589694852
"cyclopentane, pentyl-",CCCCCC1CCCC1,-6.0863,G1,3.7569000000000026,46.10000000000002,0.0,0.0,0.0,4.0,0.0,1.0,1.0,1.0,0.0,65.0178989038698,1.9111701105978576
2-[n-(2-Hydroxyethyl)-3-methyl-4-phenyldiazenylanilino]ethanol,Cc1cc(ccc1N=Nc2ccccc2)N(CCO)CCO,-4.1254,G1,3.201420000000004,88.18160000000005,5.0,2.0,5.0,7.0,2.0,0.0,0.0,2.0,68.42,130.10828691662857,2.1658797830782097
sulfamethomidine,COc1cc(N[S](=O)(=O)c2ccc(N)cc2)nc(C)n1,-2.543,G1,1.17662,74.98390000000002,6.0,2.0,8.0,4.0,2.0,0.0,0.0,2.0,107.2,116.42175151878992,2.3259791707111312
benazolin,OC(=O)CN1C(=O)Sc2cccc(Cl)c12,-2.6087,G1,1.8010000000000004,58.73080000000001,4.0,1.0,6.0,2.0,2.0,0.0,0.0,2.0,59.3,93.33347879714394,2.764855679937048
"propanedioic acid, dihydrazide",NNC(=O)CC(=O)NN,-0.121,G1,-2.6437,29.277200000000008,4.0,4.0,6.0,2.0,0.0,0.0,0.0,0.0,110.24,51.51195725842176,3.4713176263221484
"2-butanamine, 3,3-dimethyl-",C[C@H]([NH3+])C(C)(C)C,0.9861,G1,0.6628999999999994,31.80509999999999,0.0,1.0,1.0,0.0,0.0,0.0,0.0,0.0,27.64,45.903852296825306,3.541196965079901
"d-gluconic acid, hydrazide",NNC(=O)C(O)C(O)C(O)C(O)CO,-0.4985,G1,-4.587799999999996,43.44310000000003,7.0,7.0,8.0,5.0,0.0,0.0,0.0,0.0,156.26999999999998,79.55654136169214,4.296163703795438
fuberidazole,[nH]1c2ccccc2nc1c3occc3,-3.414,G3,2.8229000000000006,53.79570000000002,2.0,1.0,3.0,1.0,3.0,0.0,0.0,3.0,41.82,80.39329952333385,2.2440947752499047
"10h-phenothiazine, 3-bromo-",Brc1ccc2Nc3ccccc3Sc2c1,-6.1119,G1,4.657300000000001,67.98970000000001,2.0,1.0,3.0,0.0,2.0,0.0,1.0,3.0,12.03,101.02318598664642,2.108606050374169
"phenothiazine, 3-iodo-",Ic1ccc2Nc3ccccc3Sc2c1,-6.9278,G1,4.499400000000001,73.00670000000002,2.0,1.0,3.0,0.0,2.0,0.0,1.0,3.0,12.03,106.41747650204871,2.108606050374169
"1,2-bis(2-chloroethylsulfonyl)ethane",ClCC[S](=O)(=O)CC[S](=O)(=O)CCCl,-1.4486,G1,0.2936000000000003,58.74760000000003,4.0,0.0,8.0,7.0,0.0,0.0,0.0,0.0,68.28,94.4212908171491,4.189486886758264
alizarin complexone,OC(=O)CN(CC(O)=O)Cc1cc2C(=O)c3ccccc3C(=O)c2c(O)c1O,-1.8077,G1,0.8443999999999996,93.62720000000004,7.0,4.0,9.0,6.0,2.0,0.0,1.0,3.0,152.43999999999997,157.62011805197054,2.077270368327061
"benzoic acid, 3-chloro-4-hydroxy-, methyl ester",COC(=O)c1ccc(O)c(Cl)c1,-2.873,G1,1.8322,44.45630000000002,3.0,1.0,4.0,1.0,1.0,0.0,0.0,1.0,46.53,74.5338546569185,3.0455637915397915
"2,2-dimethyl-3-pentanol",CCC(O)C(C)(C)C,-1.1514,G1,1.8034,35.75279999999999,1.0,1.0,1.0,1.0,0.0,0.0,0.0,0.0,20.23,51.723137466405205,3.623281003705976
"butanedioic acid, chloro-, (r)-",OC(=O)C[C@@H](Cl)C(O)=O,-0.7953,G3,0.1531000000000001,29.52959999999999,2.0,2.0,5.0,3.0,0.0,0.0,0.0,0.0,74.6,56.0488553023806,3.632432151939845
"propanedioic acid, hexyl-",CCCCCCC(C(O)=O)C(O)=O,-1.6566,G1,1.7422000000000002,47.520600000000016,2.0,2.0,4.0,7.0,0.0,0.0,0.0,0.0,74.6,77.57029964748197,3.7087999066177497
"2,3,6-trichlorophenoxyacetic acid",OC(=O)COc1c(Cl)ccc(Cl)c1Cl,-2.6198,G1,3.1102000000000007,54.602800000000016,2.0,1.0,6.0,3.0,1.0,0.0,0.0,1.0,46.53,95.14038711068184,2.9450227685135126
"ethanone, 2-methoxy-1-phenyl-",COCC(=O)c1ccccc1,-0.7616,G1,1.5157,42.64850000000003,2.0,0.0,2.0,3.0,1.0,0.0,0.0,1.0,26.3,65.80129679223742,2.6930079504145
n-(3-chlorallyl) hexaminium chloride,[Cl-].Cl/C=C/C[N+]12CN3CN(CN(C3)C1)C2,0.0829,G1,-2.7484999999999955,54.83940000000003,3.0,0.0,6.0,2.0,0.0,4.0,4.0,4.0,9.72,101.6573570970704,8.533330226667825e-07
2-buten-1-ol (cis),C\C=C/CO,0.3621,G3,0.5548,21.899799999999995,1.0,1.0,1.0,1.0,0.0,0.0,0.0,0.0,20.23,31.938708091031128,2.622415807990217
"ethane, 2-chloro-1,1,1-trinitro-",[O-][N+](=O)C(CCl)([N+]([O-])=O)[N+]([O-])=O,-0.2586,G1,-0.2909000000000001,34.43420000000001,6.0,0.0,10.0,4.0,0.0,0.0,0.0,0.0,129.42000000000002,69.36638653660722,5.185144767694768
"butanedioic acid, tetraethyl-",CCC(CC)(C(O)=O)C(CC)(CC)C(O)=O,-2.9644,G1,2.7684000000000006,61.30160000000004,2.0,2.0,4.0,7.0,0.0,0.0,0.0,0.0,74.6,96.6651259906718,5.780992298907336
"propanoic acid, 3-butoxy-, methyl ester",CCCCOCCC(=O)OC,-1.2909,G1,1.3662,42.360000000000014,3.0,0.0,3.0,6.0,0.0,0.0,0.0,0.0,35.53,67.68245838766332,2.9549874302986416
dipropetryne,CCSc1nc(NC(C)C)nc(NC(C)C)n1,-4.2031,G1,2.624200000000001,73.74240000000003,6.0,2.0,6.0,6.0,1.0,0.0,0.0,1.0,62.73,107.23271837009068,2.914930496055376
"propanoic acid, 2-methyl-, 4-nitrophenyl ester",CC(C)C(=O)Oc1ccc(cc1)[N+]([O-])=O,-3.9588,G1,2.1562,53.56940000000002,4.0,0.0,5.0,3.0,1.0,0.0,0.0,1.0,69.44,86.81921462913384,2.727326259883217
"propanoic acid, 3-methoxy-, butyl ester",CCCCOC(=O)CCOC,-1.2135,G1,1.3662,42.360000000000014,3.0,0.0,3.0,6.0,0.0,0.0,0.0,0.0,35.53,67.68245838766332,3.089479528269324
"1,10-phenanthroline, 5-nitro-",[O-][N+](=O)c1cc2cccnc2c3ncccc13,-3.9172,G1,2.6912000000000003,63.69840000000002,4.0,0.0,5.0,1.0,3.0,0.0,0.0,3.0,68.92,95.8870038673602,2.590696146592083
"2,4(1h,3h)-pyrimidinedione, 5-ethyl-",CCC1=CNC(=O)NC1=O,-1.9424,G1,-0.3744,37.06139999999999,2.0,2.0,4.0,1.0,1.0,0.0,0.0,1.0,65.72,56.923627510270734,3.338083056275549
"l-aspartic acid, n-methyl-",CNC(CC(O)=O)C(O)=O,-0.7544,G1,-0.8662999999999996,32.73629999999999,3.0,3.0,5.0,4.0,0.0,0.0,0.0,0.0,86.63,57.66039337350357,3.8334832964994