Name,SMILES,Solubility,Group,MolLogP,MolMR,NumHAcceptors,NumHDonors,NumHeteroatoms,NumRotatableBonds,NumAromaticRings,NumSaturatedRings,NumAliphaticRings,RingCount,TPSA,LabuteASA,BalabanJ
"N-(6-amino-1,3-dimethyl-2,4-dioxo-1,2,3,4-tetrahydropyrimidin-5-yl)formamide",CN1C(=C(NC=O)C(=O)N(C)C1=O)N,-1.1831208545999998,G1,-1.7654999999999994,51.0231,6.0,2.0,7.0,2.0,1.0,0.0,0.0,1.0,99.12,78.75978757852252,3.681500353773997
2-[(prop-2-en-1-yloxy)methyl]oxirane,C=CCOCC1CO1,0.049756882,G3,0.5878,30.755999999999982,2.0,0.0,2.0,4.0,0.0,1.0,1.0,1.0,21.76,49.09561787311287,1.803593800954553
"ethyl (2-methyl-1,3-dioxolan-2-yl)acetate",CCOC(=O)CC1(C)OCCO1,-0.1448235929,G1,0.7026000000000001,41.55900000000002,4.0,0.0,4.0,3.0,0.0,1.0,1.0,1.0,44.760000000000005,71.79017246364097,2.329307604435857
potassium vanadium trioxide,[K+].[O-][V](=O)=O,-0.0465738269,G1,-4.425100000000001,1.373,3.0,0.0,5.0,0.0,0.0,0.0,0.0,0.0,57.2,76.53765720086382,0.0
lanthanum trinitrate,[La],0.9471841061,G1,0.0,0.0,0.0,0.0,1.0,0.0,0.0,0.0,0.0,0.0,0.0,35.47218132420978,0.0
"1,4-dimethyl butanedioate",COC(=O)CCC(=O)OC,-0.0752231636,G5,0.1125999999999998,33.26599999999999,4.0,0.0,4.0,3.0,0.0,0.0,0.0,0.0,52.60000000000001,59.11409625891388,3.352921516464098
"1,2-bis(oxiran-2-ylmethyl) cyclohex-4-ene-1,2-dicarboxylate",O=C(OCC1CO1)C2CC=CCC2C(=O)OCC3CO3,-1.3401088604,G1,0.4528000000000001,66.75200000000004,6.0,0.0,6.0,6.0,0.0,2.0,3.0,3.0,77.66,116.55362714032856,1.5223348742253842
calcium bis((2Z)-4-oxopent-2-en-2-olate),[Ca++].CC(=O)[CH-]C(C)=O.CC(=O)[CH-]C(C)=O,-1.2665270421,G1,0.3565800000000001,57.07800000000002,4.0,0.0,5.0,4.0,0.0,0.0,0.0,0.0,68.28,119.79141760632751,-1.7999999750625006e-07
"3,4-dihydroxybenzonitrile",Oc1ccc(cc1O)C#N,-1.0235160951,G3,0.96948,34.48660000000001,3.0,2.0,3.0,0.0,1.0,0.0,0.0,1.0,64.25,57.77739241975432,3.2001177806223087
2-[2-(2-{2-[(2-methylprop-2-enoyl)oxy]ethoxy}ethoxy)ethoxy]ethyl 2-methylprop-2-enoate,CC(=C)C(=O)OCCOCCOCCOCCOC(=O)C(C)=C,-1.4186392601,G1,1.2748,84.00300000000004,7.0,0.0,7.0,14.0,0.0,0.0,0.0,0.0,80.29000000000002,136.72494702703213,3.1925747986300785
4-aminobenzenesulfonic acid,Nc1ccc(cc1)[S](O)(=O)=O,-1.1412730253,G5,0.5155000000000001,40.669,3.0,2.0,5.0,1.0,1.0,0.0,0.0,1.0,80.39,64.3999298265503,3.2015159310664942
methoxycyclopentane,COC1CCCC1,-0.9037886388,G1,1.5754,29.264999999999983,1.0,0.0,1.0,1.0,0.0,1.0,1.0,1.0,9.23,44.67167567579024,2.1399633186493645
"3,4-diaminobenzenesulfonic acid",Nc1ccc(cc1N)[S](O)(=O)=O,-1.1812163945,G1,0.0976999999999999,45.0814,4.0,3.0,6.0,1.0,1.0,0.0,0.0,1.0,106.41,69.73982052356301,3.327295999016508
(E)-N-(pyridin-2-ylmethylidene)hydroxylamine,O=N\C=C/1NC=CC=C1,-1.0004518583,G1,1.2673,35.2937,3.0,1.0,3.0,1.0,0.0,0.0,1.0,1.0,41.46,52.73391551756911,2.650721189432891
"3a,4,7,7a-tetrahydro-1H-isoindole-1,3(2H)-dione",O=C1NC(=O)C2CC=CCC12,-1.0930914177,G1,0.2251999999999998,38.50370000000001,2.0,1.0,3.0,0.0,0.0,1.0,2.0,2.0,46.17,64.46548687305865,2.275089056121243
"3,5,5-trimethylcyclohex-2-en-1-one",CC1=CC(=O)CC(C)(C)C1,-1.0613582209,G3,2.3218000000000005,41.77900000000002,1.0,0.0,1.0,0.0,0.0,0.0,1.0,1.0,17.07,62.1248758573327,2.798154170206286
3-methylaniline,Cc1cccc(N)c1,-0.9508352475,G5,1.5772199999999998,35.59139999999999,1.0,1.0,1.0,0.0,1.0,0.0,0.0,1.0,26.02,49.13623593090629,3.077660437970554
2-methylbutan-2-ol,CCC(C)(C)O,0.1266596907,G5,1.1673,26.58879999999999,1.0,1.0,1.0,1.0,0.0,0.0,0.0,0.0,20.23,38.99325323761199,3.168489872670569
rhodium(3+) ion trinitrate,[Rh+3].[O-][N+]([O-])=O.[O-][N+]([O-])=O.[O-][N+]([O-])=O,0.6074112618999999,G1,-0.7198000000000002,31.084200000000006,9.0,0.0,13.0,0.0,0.0,0.0,0.0,0.0,198.6,81.47304318557761,-4.4999999833333336e-08
thiourea,NC(N)=S,0.188516266,G5,-0.8113000000000001,20.972800000000007,1.0,2.0,3.0,0.0,0.0,0.0,0.0,0.0,52.04,29.77781266905986,2.8030394876740514
"benzene-1,3-diol",Oc1cccc(O)c1,1.0034883278,G5,1.0978,29.771599999999992,2.0,2.0,2.0,0.0,1.0,0.0,0.0,1.0,40.46,47.01987062388899,3.077660437970554
1-hexadecylpyridinium chloride,[Cl-].CCCCCCCCCCCCCCCC[n+]1ccccc1,-0.4861495515,G1,3.4594000000000005,96.94900000000008,0.0,0.0,2.0,15.0,1.0,0.0,0.0,1.0,3.88,150.85318966993395,4.839993004010474e-06
"2-[(allyloxy)methyl]-2-methylbutane-1,1-diol",CCC(CO)(CO)COCC=C,-0.1997551773,G1,0.57,47.91160000000003,3.0,2.0,3.0,7.0,0.0,0.0,0.0,0.0,49.69,73.67119764471705,3.835346308033596
2-hydroxy-4-(methylsulfanyl)butanenitrile,CSCCC(O)C#N,-0.0765411499,G1,0.62398,34.6188,3.0,1.0,3.0,3.0,0.0,0.0,0.0,0.0,44.02,53.50894294444596,3.0162578211176863
3-methylbut-2-enal,CC(C)=CC=O,0.1165037469,G1,1.1515,25.49499999999999,1.0,0.0,1.0,1.0,0.0,0.0,0.0,0.0,17.07,37.67093855327549,3.405032612931118
lithium(1+) ion hydroxide,[Li+].[OH-],0.6621234357,G5,-3.1728,1.9358,1.0,0.0,2.0,0.0,0.0,0.0,0.0,0.0,30.0,25.14679671425051,0.0
"3,5-dimethylhex-1-yn-3-ol",CC(C)CC(C)(O)C#C,-1.0365979243,G1,1.4166999999999998,38.9118,1.0,1.0,1.0,2.0,0.0,0.0,0.0,0.0,20.23,57.08730497266109,3.7597162383419143
cyclohex-3-ene-1-carbaldehyde,O=CC1CCC=CC1,-0.9775501681,G1,1.5416,32.54499999999999,1.0,0.0,1.0,1.0,0.0,0.0,1.0,1.0,17.07,49.39499162853947,2.371415795500836
"1,3-diazinane-2,4,6-trione",O=C1CC(=O)NC(=O)N1,-1.0486616392,G3,-1.2575,26.2984,3.0,2.0,5.0,0.0,0.0,1.0,1.0,1.0,75.27,50.41253688483752,2.636629855902423
6-chlorohexan-1-ol,OCCCCCCCl,-1.0824421952,G1,1.7779,36.2738,1.0,1.0,2.0,5.0,0.0,0.0,0.0,0.0,20.23,55.66146157889028,2.53006045688352
suberonitrile,N#CCCCCCCC#N,-1.0810922867,G1,2.3741600000000007,38.928,2.0,0.0,2.0,5.0,0.0,0.0,0.0,0.0,47.58,62.079005191543246,2.8030823921911323
2-(4-methyl-5-oxo-4-propan-2-yl-1H-imidazol-2-yl)pyridine-3-carboxylic acid,CC(C)C1(C)N=C(NC1=O)c2ncccc2C(O)=O,-1.3640293861,G1,1.0709,69.11900000000003,4.0,2.0,6.0,3.0,1.0,0.0,1.0,2.0,91.65,110.12721948383884,2.5065401176242754
pent-2-enenitrile,CC\C=C/C#N,-0.8598992117,G1,1.47618,25.04399999999999,1.0,0.0,1.0,1.0,0.0,0.0,0.0,0.0,23.79,37.90199613470044,3.016061490020405
"2-phenyl-4,5-dihydro-1H-imidazole",C1C[NH+]=C(N1)c2ccccc2,-1.1265180752,G1,-0.8829999999999987,44.38340000000002,1.0,2.0,2.0,1.0,1.0,0.0,1.0,2.0,26.0,65.96558297862572,2.29241189428233
"tricyclo[2.2.2.2~1,4~]decane-2,5-diyldimethanol",OCC1CCC2C3CC(CC3CO)C12,-1.2515054899,G1,1.2694,53.57960000000004,2.0,2.0,2.0,2.0,0.0,3.0,3.0,3.0,40.46,85.32458832999657,1.795609844790116
hydroxy(phenyl)acetic acid,O[C@@H](C(O)=O)c1ccccc1,-0.1416667622,G1,0.8046,39.03760000000002,2.0,2.0,3.0,2.0,1.0,0.0,0.0,1.0,57.53,63.91127695272596,2.851177890164404
Alpha-Methylglucoside,COC1OC(CO)C(O)C(O)C1O,0.7452125491,G3,-2.5673,40.77620000000001,6.0,4.0,6.0,2.0,0.0,1.0,1.0,1.0,99.38,75.32709802847776,2.659390479692273
"but-2-yne-1,4-diol; 2-(chloromethyl)oxirane",OCC#CCO.ClCC1CO1,0.7778715429,G2,-0.4016000000000002,42.40760000000002,3.0,2.0,4.0,1.0,0.0,1.0,1.0,1.0,52.99,70.93340806684903,1.833333306444445e-07
3-methyloxolane,CC1CCOC1,0.0901312493,G1,1.0428,24.59999999999999,1.0,0.0,1.0,0.0,0.0,1.0,1.0,1.0,9.23,38.30673356139363,2.184105569636068
chromium(3+) ion trinitrate,[Cr+3].[O-][N+]([O-])=O.[O-][N+]([O-])=O.[O-][N+]([O-])=O,0.6456305496,G1,-0.7198000000000002,31.084200000000006,9.0,0.0,13.0,0.0,0.0,0.0,0.0,0.0,198.6,79.46322813499947,-4.4999999833333336e-08
1-ethenylsulfanylethanol,CC(O)SC=C,0.0054931194,G1,1.2013999999999998,29.468799999999987,2.0,1.0,2.0,2.0,0.0,0.0,0.0,0.0,20.23,42.06181811639637,2.8141442217770303
disodium 2-[carboxymethyl-[2-[carboxymethyl-(2-oxido-2-oxoethyl)amino]ethyl]amino]acetate,[Na+].[Na+].OC(=O)CN(CCN(CC(O)=O)CC([O-])=O)CC([O-])=O,-0.5054187441,G5,-10.732600000000009,58.16560000000002,8.0,2.0,12.0,11.0,0.0,0.0,0.0,0.0,161.34,170.1932200521888,-1.8049992523503188e-06
nitromethane,C[N+]([O-])=O,0.2335017655,G3,-0.1071,12.9184,2.0,0.0,3.0,0.0,0.0,0.0,0.0,0.0,43.14,23.39222675032935,2.8030394876740514
samarium(3+) ion trinitrate,[Sm+3].[O-][N+]([O-])=O.[O-][N+]([O-])=O.[O-][N+]([O-])=O,0.4860173873,G5,-0.7173000000000003,31.084200000000006,9.0,0.0,13.0,0.0,0.0,0.0,0.0,0.0,198.6,101.19605611259396,-4.4999999833333336e-08
3-methylpent-1-yn-3-ol,CCC(C)(O)C#C,0.0167319924,G5,0.7806,29.747799999999987,1.0,1.0,1.0,1.0,0.0,0.0,0.0,0.0,20.23,44.35742074386788,3.655790926219941
hexanedihydrazide,NNC(=O)CCCCC(=O)NN,-0.2324579511,G1,-1.473399999999999,43.128200000000014,4.0,4.0,6.0,5.0,0.0,0.0,0.0,0.0,110.24,70.60678360161158,3.211729783466108
"1,2-dimethoxyethane",COCCOC,1.0451691789,G1,0.2792,23.751999999999992,2.0,0.0,2.0,3.0,0.0,0.0,0.0,0.0,18.46,38.061167830033135,2.3390923149762908
"1,4-dioxane",C1COCCO1,1.0549945152,G1,0.0332,21.637999999999995,2.0,0.0,2.0,0.0,0.0,1.0,1.0,1.0,18.46,37.05533667650391,2.0
1-methylpyrrolidin-2-one,CN1CCCC1=O,1.0037817508,G1,0.2385999999999999,26.870999999999988,1.0,0.0,2.0,0.0,0.0,1.0,1.0,1.0,20.31,43.11454410213389,2.4784387393909566
1-methylurea,CNC(N)=O,1.1302814392,G1,-0.7155,18.643100000000004,1.0,2.0,3.0,0.0,0.0,0.0,0.0,0.0,55.12,30.15546812289068,2.847378923087672
"2,2'-sulfanediyldiethanol",OCCSCCO,0.9129678895,G1,-0.2958,31.496599999999987,3.0,2.0,3.0,4.0,0.0,0.0,0.0,0.0,40.46,47.54565490077663,2.447472887876344
"2,6-dimethylmorpholine",O.OC(=O)CC(O)(CC(O)=O)C(O)=O,0.6774954055,G1,-2.0732,40.705000000000005,4.0,4.0,8.0,5.0,0.0,0.0,0.0,0.0,163.63,77.70621633714231,0.0
2-(2-hydroxyethoxy)ethan-1-ol,OCCOCCO,0.9741986662,G1,-1.0124,24.99059999999999,3.0,2.0,3.0,4.0,0.0,0.0,0.0,0.0,49.69,42.53609010491827,2.447472887876344
2-(2-oxoimidazolidin-1-yl)ethyl methacrylate,CC(=C)C(=O)OCCN1CCNC1=O,0.7028481462999999,G2,0.1309,50.74470000000002,3.0,1.0,5.0,4.0,0.0,1.0,1.0,1.0,58.64,82.70963904069475,2.17895001043104
2-(dimethylamino)-2-methylpropan-1-ol,[H+].[Cl-].CN(C)C(C)(C)CO,0.8134589559000001,G1,-2.5645999999999973,35.96379999999999,2.0,1.0,3.0,2.0,0.0,0.0,0.0,0.0,23.47,64.7559206442569,-2.4499998320000124e-07
2-[(2-aminoethyl)amino]ethan-1-ol,NCCNCCO,0.9823282162,G1,-1.4729999999999996,29.009899999999995,3.0,3.0,3.0,4.0,0.0,0.0,0.0,0.0,58.28,43.51806400383614,2.447472887876344
2-[(2-hydroxyethyl)(methyl)amino]ethan-1-ol,CN(CCO)CCO,0.9238549272,G1,-1.0972000000000002,31.668599999999984,3.0,2.0,3.0,4.0,0.0,0.0,0.0,0.0,43.7,49.547320660011366,2.9196126414385533
2-[2-(2-hydroxyethoxy)ethoxy]ethan-1-ol,OCCOCCOCCO,0.8234052513,G1,-0.9958000000000002,35.8096,4.0,2.0,4.0,7.0,0.0,0.0,0.0,0.0,58.92,60.379519563218366,2.6476048489438337
2-[bis(2-hydroxyethyl)amino]ethan-1-ol,OCCN(CCO)CCO,0.8262602859999999,G1,-1.734699999999999,37.6974,4.0,3.0,4.0,6.0,0.0,0.0,0.0,0.0,63.93000000000001,60.70649652660399,3.2950821163049606
2-chloroethan-1-ol,OCCCl,1.0941285967,G1,0.2174999999999999,17.805799999999998,1.0,1.0,2.0,1.0,0.0,0.0,0.0,0.0,20.23,30.201693121303844,1.9747448713915892
2-cyanoacetic acid,OC(=O)CC#N,1.0702644103,G1,-0.0153199999999999,17.865799999999997,2.0,1.0,3.0,1.0,0.0,0.0,0.0,0.0,61.09,34.81747079033126,3.1275799516775438
2-hydroxyethyl prop-2-enoate,OCCOC(=O)C=C,0.9351079333,G1,-0.2921000000000002,28.24179999999999,3.0,1.0,3.0,3.0,0.0,0.0,0.0,0.0,46.53,47.57871753497837,3.1114301208164354
2-hydroxypropanenitrile,CC(O)C#N,1.1482586908,G1,-0.10922,17.2938,2.0,1.0,2.0,0.0,0.0,0.0,0.0,0.0,44.02,30.65594869028749,2.9394472463233274
2-methylbut-3-yn-2-ol,CC(C)(O)C#C,1.0751110617,G1,0.3905,25.13079999999999,1.0,1.0,1.0,0.0,0.0,0.0,0.0,0.0,20.23,37.99247862947126,3.552734354515761
2-methylpropan-2-amine,CC(C)(C)N,1.1358509819,G1,0.7436,23.9404,1.0,1.0,1.0,0.0,0.0,0.0,0.0,0.0,26.02,33.17396806803208,3.0237157840738176
2-methylpropan-2-ol,CC(C)(C)O,1.1300470117,G1,0.7771999999999999,21.971799999999995,1.0,1.0,1.0,0.0,0.0,0.0,0.0,0.0,20.23,32.62831112321538,3.0237157840738176
2-methylpyridine,Cc1ccccn1,1.0309150604,G1,1.39002,28.973999999999997,1.0,0.0,1.0,0.0,1.0,0.0,0.0,1.0,12.89,43.01599321484009,3.0214653097240864
2-sulfanylethan-1-ol,OCCS,1.1071488253,G1,-0.0915,20.938799999999997,2.0,2.0,2.0,1.0,0.0,0.0,0.0,0.0,20.23,31.05349355782389,1.9747448713915892
3-(dimethylamino)propan-1-ol,CN(C)CCCO,0.9864676175,G1,-0.0696,30.256799999999984,2.0,1.0,2.0,3.0,0.0,0.0,0.0,0.0,23.47,44.753086907815366,2.6782577431647265
"3-methyl-1-vinyl-2,3-dihydro-1H-imidazol-1-ium methyl sulfate",CO[S]([O-])(=O)=O.C[n+]1ccn(C=C)c1,0.6570840829,G1,-0.4938999999999993,48.70120000000003,5.0,0.0,7.0,2.0,1.0,0.0,0.0,1.0,75.24000000000001,83.00733618918535,2.545833294709491e-07
4-hydroxybenzenesulfonic acid,Oc1ccc(cc1)[S](O)(=O)=O,0.7590091939,G3,0.6389000000000001,37.921400000000006,3.0,2.0,5.0,1.0,1.0,0.0,0.0,1.0,74.6,63.85427288173359,3.2015159310664942
4-hydroxybutyl prop-2-enoate,OCCCCOC(=O)C=C,0.8411251015000001,G1,0.4881,37.4758,3.0,1.0,3.0,5.0,0.0,0.0,0.0,0.0,46.53,60.30860176377159,3.033873494743956
"N,N-dimethylacetamide",CN(C)C(C)=O,1.0598721633,G3,0.0945,24.36799999999999,1.0,0.0,2.0,0.0,0.0,0.0,0.0,0.0,20.31,37.75543314126651,3.2575861612334887
N-(1-cyanoethyl)formamide,CC(NC=O)C#N,1.0083088579,G1,-0.35552,24.2747,2.0,1.0,3.0,2.0,0.0,0.0,0.0,0.0,52.89,41.9380413361399,3.209971690692883
N-ethylethanamine,CCNCC,1.1358509819,G1,0.6157999999999999,24.217699999999997,1.0,1.0,1.0,2.0,0.0,0.0,0.0,0.0,12.03,33.38393955462742,2.19060968716425
N-methylacetamide,CNC(C)=O,1.1361123296,G1,-0.2477,19.7407,1.0,1.0,2.0,0.0,0.0,0.0,0.0,0.0,29.1,31.18051954027457,2.847378923087672
aziridine,C1CN1,1.3658352118,G1,-0.4104,12.869700000000002,1.0,1.0,1.0,0.0,0.0,1.0,1.0,1.0,21.94,19.64822417230497,2.25
"butane-1,2-diol",CCC(O)CO,1.0451691789,G1,-0.2503999999999999,23.383599999999998,2.0,2.0,2.0,2.0,0.0,0.0,0.0,0.0,40.46,37.4225448754114,2.7541847860376616
"butane-2,3-diol",C[C@@H](O)[C@H](C)O,1.0451691789,G1,-0.252,23.3616,2.0,2.0,2.0,1.0,0.0,0.0,0.0,0.0,40.46,37.4225448754114,2.993497243478473
cyclohexanamine,NC1CCCCC1,1.0035890328,G1,1.2778,31.06039999999999,1.0,1.0,1.0,0.0,0.0,1.0,1.0,1.0,26.02,44.89802114329608,2.1229179499593664
cyclopropanamine,NC1CC1,1.2433943163,G1,0.1074999999999999,17.2094,1.0,1.0,1.0,0.0,0.0,1.0,1.0,1.0,26.02,25.80319480010625,2.171098317873574
ethanedioyl dichloride,ClC(=O)C(Cl)=O,0.8964494062999999,G1,0.5171999999999999,21.72,2.0,0.0,4.0,1.0,0.0,0.0,0.0,0.0,34.14,44.03376979607703,3.5677034550432034
formamide,NC=O,1.3463919758,G1,-0.8985000000000001,10.2514,1.0,1.0,2.0,0.0,0.0,0.0,0.0,0.0,43.09,18.240663824886028,2.1874960973678963
methanesulfonic acid,C[S](O)(=O)=O,1.0172449791,G1,-0.4959999999999998,17.472600000000003,2.0,1.0,4.0,0.0,0.0,0.0,0.0,0.0,54.37,30.36788703787017,4.062942298971397
methyl hydroxymethoxyacetate,COC(=O)COCO,0.9204425284,G1,-0.8742000000000003,25.05379999999999,4.0,1.0,4.0,3.0,0.0,0.0,0.0,0.0,55.760000000000005,47.0169236822729,2.988598647973156
methylhydrazine,CNN,1.3365535082,G1,-0.9205,13.2471,2.0,2.0,2.0,0.0,0.0,0.0,0.0,0.0,38.05,19.599139928685283,1.6329931618554523
oxan-2-one,O=C1CCCCO1,0.9994921725,G1,0.7135,24.809999999999988,2.0,0.0,2.0,0.0,0.0,1.0,1.0,1.0,26.3,42.4682556614374,2.2495440947344707
"pentane-1,2-diol",CCCC(O)CO,0.9823448956,G1,0.1397,28.000599999999988,2.0,2.0,2.0,3.0,0.0,0.0,0.0,0.0,40.46,43.787486989808,2.831819966070785
"pentane-1,5-diol",OCCCCCO,0.9823448956,G1,0.1413,28.022599999999983,2.0,2.0,2.0,4.0,0.0,0.0,0.0,0.0,40.46,43.787486989808,2.447472887876344
"propane-1,2-diamine",CC(N)CN,1.1300235759,G1,-0.7077,22.703800000000005,2.0,2.0,2.0,1.0,0.0,0.0,0.0,0.0,52.04,32.1489166506482,2.5395388613593903
propanoic acid,CCC(O)=O,1.1303048889,G1,0.481,17.9268,1.0,1.0,2.0,1.0,0.0,0.0,0.0,0.0,37.3,30.42489110886254,2.847378923087672
sodium trichloroacetate,[Na+].[O-]C(=O)C(Cl)(Cl)Cl,0.7319628929,G3,-2.8895,25.297,2.0,0.0,6.0,0.0,0.0,0.0,0.0,0.0,40.13,83.38314729782289,0.0
tributyl(methyl)azanium chloride,[I-].CCCC[N+](C)(CCCC)CCCC,0.4850619562,G1,0.8372999999999999,65.50940000000007,0.0,0.0,2.0,9.0,0.0,0.0,0.0,0.0,0.0,114.2321539740214,0.0
trifluoroacetic acid,OC(=O)C(F)(F)F,0.9430113455,G1,0.6333,13.6908,1.0,1.0,5.0,0.0,0.0,0.0,0.0,0.0,37.3,36.55655520324464,3.7911184170869663
"1,2-oxathiolane 2,2-dioxide",O=[S]1(=O)CCCO1,-0.0868756938,G1,-0.2634999999999998,24.355799999999995,3.0,0.0,4.0,0.0,0.0,1.0,1.0,1.0,43.370000000000005,42.41125159044503,2.762020467830416
"disodium 2,2'-ethene-1,2-diylbis(5-aminobenzenesulfonate)",[Na+].[Na+].Nc1ccc(\C=C\c2ccc(N)cc2[S]([O-])(=O)=O)c(c1)[S]([O-])(=O)=O,-0.6173904015,G1,-5.162399999999995,86.56320000000001,8.0,2.0,12.0,4.0,2.0,0.0,0.0,2.0,166.43999999999997,195.2926311817006,3.1249987104172107e-06
yttrium(3+) acetate,[Y+3].CC([O-])=O.CC([O-])=O.CC([O-])=O,-0.4249436743,G1,-3.7338999999999976,32.04299999999999,6.0,0.0,7.0,0.0,0.0,0.0,0.0,0.0,120.39,100.82655384293598,-4.4999999833333336e-08
3-aminobenzenesulfonic acid,Nc1cccc(c1)[S](O)(=O)=O,-1.2051065795,G5,0.5155000000000001,40.669,3.0,2.0,5.0,1.0,1.0,0.0,0.0,1.0,80.39,64.39992982655029,3.2779105845781125
6'-methoxycinchonan-9-ol sulfate (salt),COc1ccc2nccc(C(O)C3CC4CCN3CC4C=C)c2c1.O[S](O)(=O)=O,-1.5924060415,G1,2.5204,109.20420000000006,6.0,3.0,9.0,4.0,2.0,3.0,3.0,5.0,120.19,169.95113099502885,4.314165919448133e-07
3-bromo-1-(3-chloropyridin-2-yl)-1H-pyrazole-5-carboxylic acid,OC(=O)c1cc(Br)nn1c2ncccc2Cl,-1.4489346424,G4,2.3814,61.028300000000016,4.0,1.0,7.0,2.0,2.0,0.0,0.0,2.0,68.00999999999999,103.80689056262776,2.643284910417738
2-methoxy-2-methylbutane,CCC(C)(C)OC,-0.9795636765,G5,1.8214,31.37899999999998,1.0,0.0,1.0,2.0,0.0,0.0,0.0,0.0,9.23,45.67750682931947,3.360435142696057
1-hydroxy-1-phenylacetone,CC(=O)C(O)c1ccccc1,-1.1766034244,G1,1.309,42.08280000000003,2.0,1.0,2.0,2.0,1.0,0.0,0.0,1.0,37.3,65.48198531492656,2.851177890164404
diammonium carbonate,N.N.OC(O)=O,-0.9826601144,G1,0.5463999999999996,20.6978,3.0,4.0,5.0,0.0,0.0,0.0,0.0,0.0,127.53,34.76074136015857,-4.4999999250000016e-08
trimethoxymethane,COC(OC)OC,-1.0258013338,G1,0.2092,24.81499999999999,3.0,0.0,3.0,3.0,0.0,0.0,0.0,0.0,27.69,43.17471305954001,2.9923028831940863
"3,3,3-tribromo-2,2-dimethylpropan-1-ol",OCC(CBr)(CBr)CBr,-2.2261095189,G1,2.1498,50.90080000000002,1.0,1.0,4.0,4.0,0.0,0.0,0.0,0.0,20.23,80.59589605453607,3.824684203207495
"2-amino-4,5-dichlorobenzene-1-sulfonic acid",Nc1cc(Cl)c(Cl)cc1[S](O)(=O)=O,-2.1052106917,G5,1.8223000000000005,50.68900000000001,3.0,2.0,7.0,1.0,1.0,0.0,0.0,1.0,80.39,85.00646228031364,3.501552734477128
2-phenyl-1H-imidazole,[nH]1ccnc1c2ccccc2,-1.8893830404,G1,2.0767,44.02370000000002,1.0,1.0,2.0,1.0,2.0,0.0,0.0,2.0,28.68,64.91730572752179,2.46477697925065
strontium tartarate,[Sr].OC(C(O)C(O)=O)C(O)=O,-2.1065271998,G1,-2.5034,33.039199999999994,4.0,4.0,7.0,3.0,0.0,0.0,0.0,0.0,115.06,98.7220523646832,0.0
2-[(2-nitrophenyl)amino]ethan-1-ol,OCCNc1ccccc1[N+]([O-])=O,-1.9933265855,G1,0.999,48.67190000000002,4.0,2.0,5.0,4.0,1.0,0.0,0.0,1.0,75.4,75.15835900659403,2.844925640726935
"5-methyl-1,2-oxazole-4-carboxylate",Cc1oncc1C([O-])=O,-1.0553611102,G1,-0.6534800000000001,25.57049999999999,4.0,0.0,4.0,1.0,1.0,0.0,0.0,1.0,66.16,51.08237675132263,3.0766634399873354
"2,5,6-trimethylcyclohex-2-en-1-one",CC1CC=C(C)C(=O)C1C,-1.8852669619,G1,2.1777,41.70900000000002,1.0,0.0,1.0,0.0,0.0,0.0,1.0,1.0,17.07,62.12487585733268,2.8071018627474267
"2-ethylhexanoic acid, manganese salt",[Mn++].CCCCC(CC)C(O)=O,-2.0439121671,G3,2.2849,40.9418,1.0,1.0,3.0,5.0,0.0,0.0,0.0,0.0,37.3,78.84522195306636,0.0
"3-[(2-ethylhexyl)oxy]propane-1,2-diol",CCCCC(CC)COCC(O)CO,-2.0550171187,G1,1.5725999999999998,57.21760000000005,3.0,2.0,3.0,9.0,0.0,0.0,0.0,0.0,49.69,87.09068490569453,3.4154548341584143
3-amino-4-chlorobenzamide,NC(=O)c1ccc(Cl)c(N)c1,-1.976703976,G1,1.0211,44.3823,2.0,2.0,4.0,1.0,1.0,0.0,0.0,1.0,69.11,68.94091495484443,3.1515496683060507
"N-(4-amino-3-methoxy-9,10-dioxo-9,10-dihydroanthracen-1-yl)benzenesulfonamide",COc1cc(N[S](=O)(=O)c2ccccc2)c3C(=O)c4ccccc4C(=O)c3c1N,-2.3558504459000003,G1,2.853600000000001,107.96390000000002,6.0,2.0,8.0,4.0,3.0,0.0,1.0,4.0,115.56,166.72170492391592,1.9518465205821056
"3-(oxiran-2-ylmethoxy)-N,N-bis(oxiran-2-ylmethyl)aniline",C1OC1COc2cccc(c2)N(CC3CO3)CC4CO4,-2.1925611892,G1,1.0681999999999998,73.37000000000005,5.0,0.0,5.0,8.0,1.0,3.0,3.0,4.0,50.06,117.91240327670964,1.4275654341019064
benzene,c1ccccc1,-1.6423088751,G3,1.6866,26.441999999999997,0.0,0.0,0.0,0.0,1.0,0.0,0.0,1.0,0.0,37.43140311949697,3.000000000000001